
Host: ADAM-PC

Timers On : Tue Jun 20 19:41:02 2017
Timers Off: Tue Jun 20 19:41:03 2017

Wall Time:        1.00 seconds


***********************************************************

Host: ADAM-PC

Timers On : Tue Jun 20 19:41:13 2017
Timers Off: Tue Jun 20 19:41:14 2017

Wall Time:        1.00 seconds


***********************************************************

Host: ADAM-PC

Timers On : Tue Jun 20 19:42:03 2017
Timers Off: Tue Jun 20 19:42:04 2017

Wall Time:        1.00 seconds


***********************************************************

Host: ADAM-PC

Timers On : Tue Jun 20 19:42:45 2017
Timers Off: Tue Jun 20 19:42:47 2017

Wall Time:        2.00 seconds


***********************************************************

Host: ADAM-PC

Timers On : Tue Jun 20 19:43:29 2017
Timers Off: Tue Jun 20 19:43:31 2017

Wall Time:        2.00 seconds


***********************************************************

Host: ADAM-PC

Timers On : Tue Jun 20 19:47:47 2017
Timers Off: Tue Jun 20 19:47:51 2017

Wall Time:        4.00 seconds


***********************************************************

Host: ADAM-PC

Timers On : Tue Jun 20 19:48:39 2017
Timers Off: Tue Jun 20 19:48:43 2017

Wall Time:        4.00 seconds


***********************************************************

Host: ADAM-PC

Timers On : Tue Jun 20 19:50:35 2017
Timers Off: Tue Jun 20 19:50:40 2017

Wall Time:        5.00 seconds


***********************************************************

Host: ADAM-PC

Timers On : Tue Jun 20 19:56:19 2017
Timers Off: Tue Jun 20 19:56:23 2017

Wall Time:        4.00 seconds


***********************************************************

Host: ADAM-PC

Timers On : Tue Jun 20 20:00:21 2017
Timers Off: Tue Jun 20 20:00:25 2017

Wall Time:        4.00 seconds


***********************************************************

Host: ADAM-PC

Timers On : Tue Jun 20 20:00:57 2017
Timers Off: Tue Jun 20 20:01:16 2017

Wall Time:       19.00 seconds

Total PK formation time:       0.24u       0.08s 0.35250800w      1 call
HF: Form H  :       0.08u       0.00s 0.01400300w      1 call
HF: Form S/X:       0.11u       0.02s 0.01601100w      1 call
HF: Guess   :       0.07u       0.00s 0.02602400w      1 call
HF: Form G  :       0.56u       0.05s   0.063038w      8 calls
JK: D       :       0.00u       0.00s   0.000000w      8 calls
JK: USO2AO  :       0.00u       0.00s   0.000000w      8 calls
JK: JK      :       0.00u       0.00s   0.000000w      8 calls
PK computes JK:       0.00u       0.00s   0.000000w      8 calls
JK: AO2USO  :       0.00u       0.00s   0.000000w      8 calls
HF: Form F  :       0.68u       0.09s   0.102569w      8 calls
HF: DIIS    :       0.22u       0.02s   0.037529w      8 calls
DIISManager::add_entry:       0.00u       0.00s   0.006003w      8 calls
HF: Form C  :       0.00u       0.00s   0.007006w      8 calls
HF: Form D  :       0.32u       0.03s   0.026014w      8 calls
DIISManager::extrapolate:       0.22u       0.02s   0.030527w      7 calls
DIISManager::extrapolate: bMatrix setup:       0.00u       0.00s   0.002004w      7 calls
DIISManager::extrapolate: bMatrix pseudoinverse:       0.22u       0.02s   0.028523w      7 calls
DIISManager::extrapolate: form new data:       0.00u       0.00s   0.000000w      7 calls

***********************************************************

Host: ADAM-PC

Timers On : Tue Jun 20 20:06:40 2017
Timers Off: Tue Jun 20 20:06:43 2017

Wall Time:        3.00 seconds


***********************************************************

Host: ADAM-PC

Timers On : Tue Jun 20 21:15:37 2017
Timers Off: Tue Jun 20 21:15:41 2017

Wall Time:        4.00 seconds


***********************************************************

Host: ADAM-PC

Timers On : Tue Jun 20 21:17:04 2017
Timers Off: Tue Jun 20 21:17:09 2017

Wall Time:        5.00 seconds


***********************************************************

Host: ADAM-PC

Timers On : Tue Jun 20 21:17:43 2017
Timers Off: Tue Jun 20 21:17:47 2017

Wall Time:        4.00 seconds


***********************************************************

Host: ADAM-PC

Timers On : Tue Jun 20 21:19:28 2017
Timers Off: Tue Jun 20 21:19:32 2017

Wall Time:        4.00 seconds


***********************************************************

Host: ADAM-PC

Timers On : Tue Jun 20 21:19:47 2017
Timers Off: Tue Jun 20 21:20:15 2017

Wall Time:       28.00 seconds

Total PK formation time:       0.29u       0.11s 0.26870200w      1 call
HF: Form H  :       0.11u       0.00s 0.01301300w      1 call
HF: Form S/X:       0.00u       0.00s 0.01200800w      1 call
HF: Guess   :       0.35u       0.02s 0.03402300w      1 call
HF: Form G  :       0.44u       0.05s   0.063544w      8 calls
JK: D       :       0.00u       0.00s   0.000000w      8 calls
JK: USO2AO  :       0.00u       0.00s   0.000000w      8 calls
JK: JK      :       0.00u       0.00s   0.000000w      8 calls
PK computes JK:       0.00u       0.00s   0.000000w      8 calls
JK: AO2USO  :       0.00u       0.00s   0.000000w      8 calls
HF: Form F  :       0.45u       0.02s   0.067545w      8 calls
HF: DIIS    :       0.31u       0.04s   0.046538w      8 calls
DIISManager::add_entry:       0.20u       0.04s   0.010011w      8 calls
HF: Form C  :       0.08u       0.03s   0.005501w      8 calls
HF: Form D  :       0.11u       0.01s   0.024514w      8 calls
DIISManager::extrapolate:       0.11u       0.00s   0.035526w      7 calls
DIISManager::extrapolate: bMatrix setup:       0.00u       0.00s   0.002001w      7 calls
DIISManager::extrapolate: bMatrix pseudoinverse:       0.11u       0.00s   0.032023w      7 calls
DIISManager::extrapolate: form new data:       0.00u       0.00s   0.001502w      7 calls

***********************************************************

Host: ADAM-PC

Timers On : Tue Jun 20 21:22:07 2017
Timers Off: Tue Jun 20 21:22:11 2017

Wall Time:        4.00 seconds


***********************************************************

Host: ADAM-PC

Timers On : Tue Jun 20 21:22:24 2017
Timers Off: Tue Jun 20 21:22:28 2017

Wall Time:        4.00 seconds


***********************************************************

Host: ADAM-PC

Timers On : Tue Jun 20 21:29:31 2017
Timers Off: Tue Jun 20 21:29:35 2017

Wall Time:        4.00 seconds


***********************************************************

Host: ADAM-PC

Timers On : Wed Jun 21 08:50:37 2017
Timers Off: Wed Jun 21 08:50:39 2017

Wall Time:        2.00 seconds


***********************************************************

Host: ADAM-PC

Timers On : Wed Jun 21 08:51:00 2017
Timers Off: Wed Jun 21 08:51:01 2017

Wall Time:        1.00 seconds


***********************************************************

Host: ADAM-PC

Timers On : Wed Jun 21 08:52:11 2017
Timers Off: Wed Jun 21 08:52:12 2017

Wall Time:        1.00 seconds


***********************************************************

Host: ADAM-PC

Timers On : Wed Jun 21 08:53:14 2017
Timers Off: Wed Jun 21 08:53:15 2017

Wall Time:        1.00 seconds


***********************************************************

Host: ADAM-PC

Timers On : Wed Jun 21 08:53:56 2017
Timers Off: Wed Jun 21 08:53:57 2017

Wall Time:        1.00 seconds


***********************************************************

Host: ADAM-PC

Timers On : Wed Jun 21 08:55:21 2017
Timers Off: Wed Jun 21 08:55:23 2017

Wall Time:        2.00 seconds


***********************************************************

Host: ADAM-PC

Timers On : Wed Jun 21 09:53:32 2017
Timers Off: Wed Jun 21 09:53:34 2017

Wall Time:        2.00 seconds


***********************************************************

Host: ADAM-PC

Timers On : Wed Jun 21 18:07:29 2017
Timers Off: Wed Jun 21 18:07:30 2017

Wall Time:        1.00 seconds


***********************************************************

Host: ADAM-PC

Timers On : Wed Jun 21 18:07:54 2017
Timers Off: Wed Jun 21 18:07:55 2017

Wall Time:        1.00 seconds


***********************************************************
