
Host: ADAM-PC

Timers On : Mon Mar 27 16:24:41 2017
Timers Off: Mon Mar 27 16:24:45 2017

Wall Time:        4.00 seconds


***********************************************************

Host: ADAM-PC

Timers On : Mon Mar 27 16:25:03 2017
Timers Off: Mon Mar 27 16:25:36 2017

Wall Time:       33.00 seconds


***********************************************************

Host: ADAM-PC

Timers On : Mon Mar 27 16:26:04 2017
Timers Off: Mon Mar 27 16:26:05 2017

Wall Time:        1.00 seconds


***********************************************************
