
Host: ADAM-PC

Timers On : Wed Jan 18 13:16:59 2017
Timers Off: Wed Jan 18 13:17:00 2017

Wall Time:        1.00 seconds


***********************************************************

Host: ADAM-PC

Timers On : Wed Jan 18 23:40:18 2017
Timers Off: Wed Jan 18 23:40:18 2017

Wall Time:        0.00 seconds


***********************************************************

Host: ADAM-PC

Timers On : Wed Jan 18 23:41:12 2017
Timers Off: Wed Jan 18 23:41:13 2017

Wall Time:        1.00 seconds


***********************************************************

Host: ADAM-PC

Timers On : Wed Jan 18 23:42:36 2017
Timers Off: Wed Jan 18 23:42:36 2017

Wall Time:        0.00 seconds


***********************************************************

Host: ADAM-PC

Timers On : Wed Jan 18 23:44:08 2017
Timers Off: Wed Jan 18 23:44:09 2017

Wall Time:        1.00 seconds


***********************************************************

Host: ADAM-PC

Timers On : Wed Jan 18 23:47:43 2017
Timers Off: Wed Jan 18 23:47:44 2017

Wall Time:        1.00 seconds


***********************************************************

Host: ADAM-PC

Timers On : Wed Jan 18 23:50:03 2017
Timers Off: Wed Jan 18 23:50:05 2017

Wall Time:        2.00 seconds

Total PK formation time:       0.14u       0.15s 0.10714800w      1 call
HF: Form H  :       0.00u       0.00s 0.00500100w      1 call
HF: Form S/X:       0.08u       0.02s 0.00700500w      1 call
HF: Guess   :       1.85u       0.72s 0.48082600w      1 call
SAD Guess   :       1.85u       0.72s 0.47382100w      1 call
JK: (A|mn)  :       0.00u       0.00s   0.004003w      2 calls
JK: (A|Q)^-1/2:       0.35u       0.23s   0.169615w      2 calls
JK: (Q|mn)  :       0.00u       0.00s   0.000501w      2 calls
JK: D       :       0.00u       0.00s   0.000000w     12 calls
JK: USO2AO  :       0.00u       0.00s   0.000500w     12 calls
JK: JK      :       0.18u       0.03s   0.040025w     12 calls
JK: J       :       0.08u       0.02s   0.006005w      4 calls
JK: J1      :       0.08u       0.02s   0.006005w      8 calls
JK: J2      :       0.00u       0.00s   0.000000w      8 calls
JK: K       :       0.10u       0.01s   0.021515w      4 calls
JK: K1      :       0.10u       0.01s   0.021015w      6 calls
JK: K2      :       0.00u       0.00s   0.000500w      6 calls
JK: AO2USO  :       0.00u       0.00s   0.000000w     12 calls
DIISManager::add_entry:       0.00u       0.00s   0.002001w     11 calls
DIISManager::extrapolate:       0.33u       0.05s   0.014510w     10 calls
DIISManager::extrapolate: bMatrix setup:       0.00u       0.00s   0.001000w     10 calls
DIISManager::extrapolate: bMatrix pseudoinverse:       0.33u       0.05s   0.013009w     10 calls
DIISManager::extrapolate: form new data:       0.00u       0.00s   0.000501w     10 calls
HF: Form G  :       0.00u       0.00s   0.006004w      8 calls
PK computes JK:       0.00u       0.00s   0.001501w      8 calls
HF: Form F  :       0.00u       0.00s   0.020013w      8 calls
HF: DIIS    :       0.33u       0.05s   0.014510w      8 calls
HF: Form C  :       0.11u       0.01s   0.004503w      8 calls
HF: Form D  :       0.00u       0.00s   0.000000w      8 calls

***********************************************************

Host: ADAM-PC

Timers On : Wed Jan 18 23:52:56 2017
Timers Off: Wed Jan 18 23:52:57 2017

Wall Time:        1.00 seconds

Total PK formation time:       0.25u       0.08s 0.11008000w      1 call
HF: Form H  :       0.09u       0.00s 0.00700500w      1 call
HF: Form S/X:       0.00u       0.00s 0.00450200w      1 call
HF: Guess   :       0.00u       0.00s 0.00250300w      1 call
HF: Form G  :       0.00u       0.00s   0.019516w      9 calls
JK: D       :       0.00u       0.00s   0.000000w      9 calls
JK: USO2AO  :       0.00u       0.00s   0.001001w      9 calls
JK: JK      :       0.00u       0.00s   0.000500w      9 calls
PK computes JK:       0.00u       0.00s   0.000500w      9 calls
JK: AO2USO  :       0.00u       0.00s   0.000000w      9 calls
HF: Form F  :       0.42u       0.03s   0.041041w      9 calls
HF: DIIS    :       0.00u       0.00s   0.016515w      9 calls
DIISManager::add_entry:       0.00u       0.00s   0.003001w      9 calls
HF: Form C  :       0.00u       0.00s   0.001500w      9 calls
HF: Form D  :       0.10u       0.04s   0.024028w      9 calls
DIISManager::extrapolate:       0.00u       0.00s   0.012513w      8 calls
DIISManager::extrapolate: bMatrix setup:       0.00u       0.00s   0.000000w      8 calls
DIISManager::extrapolate: bMatrix pseudoinverse:       0.00u       0.00s   0.011511w      8 calls
DIISManager::extrapolate: form new data:       0.00u       0.00s   0.000501w      8 calls

***********************************************************

Host: ADAM-PC

Timers On : Wed Jan 18 23:53:50 2017
Timers Off: Wed Jan 18 23:53:51 2017

Wall Time:        1.00 seconds


***********************************************************

Host: ADAM-PC

Timers On : Wed Jan 18 23:54:53 2017
Timers Off: Wed Jan 18 23:54:54 2017

Wall Time:        1.00 seconds

Total PK formation time:       0.17u       0.12s 0.11210300w      1 call
HF: Form H  :       0.00u       0.02s 0.00500300w      1 call
HF: Form S/X:       0.00u       0.00s 0.00700600w      1 call
HF: Guess   :       0.11u       0.01s 0.00800500w      1 call
HF: Form G  :       0.22u       0.04s   0.019013w      9 calls
JK: D       :       0.00u       0.00s   0.000000w      9 calls
JK: USO2AO  :       0.00u       0.00s   0.000000w      9 calls
JK: JK      :       0.00u       0.00s   0.001001w      9 calls
PK computes JK:       0.00u       0.00s   0.001001w      9 calls
JK: AO2USO  :       0.00u       0.00s   0.000000w      9 calls
HF: Form F  :       0.33u       0.06s   0.045533w      9 calls
HF: DIIS    :       0.11u       0.01s   0.018015w      9 calls
DIISManager::add_entry:       0.00u       0.00s   0.005506w      9 calls
HF: Form C  :       0.00u       0.00s   0.004004w      9 calls
HF: Form D  :       0.11u       0.01s   0.022015w      9 calls
DIISManager::extrapolate:       0.11u       0.01s   0.010508w      8 calls
DIISManager::extrapolate: bMatrix setup:       0.00u       0.00s   0.001001w      8 calls
DIISManager::extrapolate: bMatrix pseudoinverse:       0.11u       0.01s   0.009507w      8 calls
DIISManager::extrapolate: form new data:       0.00u       0.00s   0.000000w      8 calls

***********************************************************

Host: ADAM-PC

Timers On : Wed Jan 18 23:55:21 2017
Timers Off: Wed Jan 18 23:55:22 2017

Wall Time:        1.00 seconds

Total PK formation time:       0.20u       0.09s 0.10738600w      1 call
HF: Form H  :       0.00u       0.02s 0.00499900w      1 call
HF: Form S/X:       0.00u       0.00s 0.00400200w      1 call
HF: Guess   :       0.00u       0.00s 0.00800600w      1 call
HF: Form G  :       0.12u       0.00s   0.021515w      9 calls
JK: D       :       0.00u       0.00s   0.001001w      9 calls
JK: USO2AO  :       0.00u       0.00s   0.000000w      9 calls
JK: JK      :       0.00u       0.00s   0.000501w      9 calls
PK computes JK:       0.00u       0.00s   0.000501w      9 calls
JK: AO2USO  :       0.00u       0.00s   0.000000w      9 calls
HF: Form F  :       0.24u       0.00s   0.048034w      9 calls
HF: DIIS    :       0.11u       0.01s   0.013011w      9 calls
DIISManager::add_entry:       0.11u       0.01s   0.002501w      9 calls
HF: Form C  :       0.00u       0.00s   0.003504w      9 calls
HF: Form D  :       0.11u       0.01s   0.015007w      9 calls
DIISManager::extrapolate:       0.00u       0.00s   0.010009w      8 calls
DIISManager::extrapolate: bMatrix setup:       0.00u       0.00s   0.001001w      8 calls
DIISManager::extrapolate: bMatrix pseudoinverse:       0.00u       0.00s   0.008507w      8 calls
DIISManager::extrapolate: form new data:       0.00u       0.00s   0.000501w      8 calls

***********************************************************

Host: ADAM-PC

Timers On : Wed Jan 18 23:55:36 2017
Timers Off: Wed Jan 18 23:55:36 2017

Wall Time:        0.00 seconds


***********************************************************

Host: ADAM-PC

Timers On : Fri Jan 20 11:02:16 2017
Timers Off: Fri Jan 20 11:02:17 2017

Wall Time:        1.00 seconds


***********************************************************

Host: ADAM-PC

Timers On : Fri Jan 20 11:03:12 2017
Timers Off: Fri Jan 20 11:03:12 2017

Wall Time:        0.00 seconds


***********************************************************

Host: ADAM-PC

Timers On : Fri Jan 20 11:03:49 2017
Timers Off: Fri Jan 20 11:03:50 2017

Wall Time:        1.00 seconds

Total PK formation time:       0.17u       0.02s 0.11563800w      1 call
HF: Form H  :       0.00u       0.00s 0.00750800w      1 call
HF: Form S/X:       0.00u       0.08s 0.00800500w      1 call
HF: Guess   :       0.08u       0.00s 0.01501300w      1 call
HF: Form G  :       0.00u       0.00s   0.015010w      4 calls
JK: D       :       0.00u       0.00s   0.001002w      4 calls
JK: USO2AO  :       0.00u       0.00s   0.000000w      4 calls
JK: JK      :       0.00u       0.00s   0.000000w      4 calls
PK computes JK:       0.00u       0.00s   0.000000w      4 calls
JK: AO2USO  :       0.00u       0.00s   0.000000w      4 calls
HF: Form F  :       0.22u       0.00s   0.028021w      4 calls
HF: DIIS    :       0.09u       0.00s   0.009507w      4 calls
DIISManager::add_entry:       0.00u       0.00s   0.002503w      4 calls
HF: Form C  :       0.00u       0.00s   0.000501w      4 calls
HF: Form D  :       0.00u       0.00s   0.008004w      4 calls
DIISManager::extrapolate:       0.09u       0.00s   0.006004w      3 calls
DIISManager::extrapolate: bMatrix setup:       0.00u       0.00s   0.000000w      3 calls
DIISManager::extrapolate: bMatrix pseudoinverse:       0.09u       0.00s   0.006004w      3 calls
DIISManager::extrapolate: form new data:       0.00u       0.00s   0.000000w      3 calls

***********************************************************

Host: ADAM-PC

Timers On : Fri Jan 20 11:06:52 2017
Timers Off: Fri Jan 20 11:06:52 2017

Wall Time:        0.00 seconds


***********************************************************

Host: ADAM-PC

Timers On : Fri Jan 20 16:57:34 2017
Timers Off: Fri Jan 20 16:57:34 2017

Wall Time:        0.00 seconds


***********************************************************

Host: ADAM-PC

Timers On : Wed Feb  1 16:33:12 2017
Timers Off: Wed Feb  1 16:33:13 2017

Wall Time:        1.00 seconds


***********************************************************

Host: ADAM-PC

Timers On : Wed Feb  1 16:46:44 2017
Timers Off: Wed Feb  1 16:46:45 2017

Wall Time:        1.00 seconds


***********************************************************

Host: ADAM-PC

Timers On : Wed Feb  1 16:47:53 2017
Timers Off: Wed Feb  1 16:47:55 2017

Wall Time:        2.00 seconds


***********************************************************

Host: ADAM-PC

Timers On : Wed Feb  1 16:50:35 2017
Timers Off: Wed Feb  1 16:50:36 2017

Wall Time:        1.00 seconds


***********************************************************

Host: ADAM-PC

Timers On : Wed Feb  1 16:50:51 2017
Timers Off: Wed Feb  1 16:50:52 2017

Wall Time:        1.00 seconds


***********************************************************

Host: ADAM-PC

Timers On : Wed Feb  1 16:51:56 2017
Timers Off: Wed Feb  1 16:51:57 2017

Wall Time:        1.00 seconds


***********************************************************

Host: ADAM-PC

Timers On : Wed Feb  1 16:52:41 2017
Timers Off: Wed Feb  1 16:52:42 2017

Wall Time:        1.00 seconds


***********************************************************

Host: ADAM-PC

Timers On : Wed Feb  1 16:53:54 2017
Timers Off: Wed Feb  1 16:53:55 2017

Wall Time:        1.00 seconds


***********************************************************

Host: ADAM-PC

Timers On : Wed Feb  1 16:55:23 2017
Timers Off: Wed Feb  1 16:55:24 2017

Wall Time:        1.00 seconds


***********************************************************

Host: ADAM-PC

Timers On : Wed Feb  1 16:56:27 2017
Timers Off: Wed Feb  1 16:56:28 2017

Wall Time:        1.00 seconds


***********************************************************

Host: ADAM-PC

Timers On : Wed Feb  1 16:57:19 2017
Timers Off: Wed Feb  1 16:57:20 2017

Wall Time:        1.00 seconds


***********************************************************

Host: ADAM-PC

Timers On : Wed Feb  1 17:00:33 2017
Timers Off: Wed Feb  1 17:00:34 2017

Wall Time:        1.00 seconds


***********************************************************

Host: ADAM-PC

Timers On : Wed Feb  1 17:02:13 2017
Timers Off: Wed Feb  1 17:02:15 2017

Wall Time:        2.00 seconds


***********************************************************

Host: ADAM-PC

Timers On : Wed Feb  1 17:06:26 2017
Timers Off: Wed Feb  1 17:06:28 2017

Wall Time:        2.00 seconds


***********************************************************

Host: ADAM-PC

Timers On : Wed Feb  1 17:10:11 2017
Timers Off: Wed Feb  1 17:10:12 2017

Wall Time:        1.00 seconds


***********************************************************

Host: ADAM-PC

Timers On : Wed Feb  1 17:11:09 2017
Timers Off: Wed Feb  1 17:11:11 2017

Wall Time:        2.00 seconds


***********************************************************

Host: ADAM-PC

Timers On : Wed Feb  1 17:13:43 2017
Timers Off: Wed Feb  1 17:13:45 2017

Wall Time:        2.00 seconds


***********************************************************

Host: ADAM-PC

Timers On : Wed Feb  1 17:15:18 2017
Timers Off: Wed Feb  1 17:15:19 2017

Wall Time:        1.00 seconds


***********************************************************

Host: ADAM-PC

Timers On : Wed Feb  1 17:18:22 2017
Timers Off: Wed Feb  1 17:18:24 2017

Wall Time:        2.00 seconds


***********************************************************

Host: ADAM-PC

Timers On : Wed Feb  1 23:34:47 2017
Timers Off: Wed Feb  1 23:34:49 2017

Wall Time:        2.00 seconds


***********************************************************

Host: ADAM-PC

Timers On : Wed Feb  1 23:34:54 2017
Timers Off: Wed Feb  1 23:34:55 2017

Wall Time:        1.00 seconds


***********************************************************

Host: ADAM-PC

Timers On : Thu Feb  2 13:22:32 2017
Timers Off: Thu Feb  2 13:22:33 2017

Wall Time:        1.00 seconds


***********************************************************

Host: ADAM-PC

Timers On : Thu Feb  2 13:26:48 2017
Timers Off: Thu Feb  2 13:26:48 2017

Wall Time:        0.00 seconds


***********************************************************

Host: ADAM-PC

Timers On : Mon Feb  6 13:11:32 2017
Timers Off: Mon Feb  6 13:11:33 2017

Wall Time:        1.00 seconds


***********************************************************

Host: ADAM-PC

Timers On : Mon Feb  6 13:11:57 2017
Timers Off: Mon Feb  6 13:11:59 2017

Wall Time:        2.00 seconds


***********************************************************

Host: ADAM-PC

Timers On : Sat Feb 11 13:59:41 2017
Timers Off: Sat Feb 11 13:59:41 2017

Wall Time:        0.00 seconds


***********************************************************

Host: ADAM-PC

Timers On : Thu Apr 13 13:10:10 2017
Timers Off: Thu Apr 13 13:10:12 2017

Wall Time:        2.00 seconds


***********************************************************

Host: ADAM-PC

Timers On : Thu Apr 13 13:10:17 2017
Timers Off: Thu Apr 13 13:10:17 2017

Wall Time:        0.00 seconds


***********************************************************

Host: ADAM-PC

Timers On : Thu Apr 13 13:12:06 2017
Timers Off: Thu Apr 13 13:12:07 2017

Wall Time:        1.00 seconds


***********************************************************

Host: ADAM-PC

Timers On : Tue Jun 13 12:48:11 2017
Timers Off: Tue Jun 13 12:48:13 2017

Wall Time:        2.00 seconds


***********************************************************

Host: ADAM-PC

Timers On : Tue Jun 20 14:18:29 2017
Timers Off: Tue Jun 20 14:18:30 2017

Wall Time:        1.00 seconds


***********************************************************
