
Host: ADAM-PC

Timers On : Sat Jul  1 14:00:42 2017
Timers Off: Sat Jul  1 14:00:43 2017

Wall Time:        1.00 seconds


***********************************************************

Host: Adam-PC

Timers On : Fri Sep 15 14:53:10 2017
Timers Off: Fri Sep 15 14:53:11 2017

Wall Time:        1.00 seconds


***********************************************************
