
Host: ADAM-PC

Timers On : Wed Jun 21 15:00:10 2017
Timers Off: Wed Jun 21 15:00:13 2017

Wall Time:        3.00 seconds


***********************************************************

Host: ADAM-PC

Timers On : Wed Jun 21 15:00:42 2017
Timers Off: Wed Jun 21 15:00:44 2017

Wall Time:        2.00 seconds


***********************************************************

Host: ADAM-PC

Timers On : Wed Jun 21 15:02:51 2017
Timers Off: Wed Jun 21 15:02:53 2017

Wall Time:        2.00 seconds


***********************************************************

Host: ADAM-PC

Timers On : Wed Jun 21 15:03:42 2017
Timers Off: Wed Jun 21 15:03:43 2017

Wall Time:        1.00 seconds


***********************************************************

Host: ADAM-PC

Timers On : Wed Jun 21 15:04:04 2017
Timers Off: Wed Jun 21 15:04:06 2017

Wall Time:        2.00 seconds


***********************************************************

Host: ADAM-PC

Timers On : Wed Jun 21 15:04:30 2017
Timers Off: Wed Jun 21 15:12:09 2017

Wall Time:      459.00 seconds


***********************************************************

Host: ADAM-PC

Timers On : Wed Jun 21 17:10:05 2017
Timers Off: Wed Jun 21 17:13:26 2017

Wall Time:      201.00 seconds


***********************************************************

Host: ADAM-PC

Timers On : Wed Jun 21 17:42:43 2017
Timers Off: Wed Jun 21 17:42:46 2017

Wall Time:        3.00 seconds


***********************************************************

Host: ADAM-PC

Timers On : Wed Jun 21 17:43:03 2017
Timers Off: Wed Jun 21 17:43:05 2017

Wall Time:        2.00 seconds


***********************************************************

Host: ADAM-PC

Timers On : Wed Jun 21 18:03:15 2017
Timers Off: Wed Jun 21 18:03:17 2017

Wall Time:        2.00 seconds


***********************************************************

Host: ADAM-PC

Timers On : Wed Jun 21 18:04:54 2017
Timers Off: Wed Jun 21 18:04:56 2017

Wall Time:        2.00 seconds


***********************************************************

Host: ADAM-PC

Timers On : Wed Jun 21 18:08:01 2017
Timers Off: Wed Jun 21 18:08:03 2017

Wall Time:        2.00 seconds


***********************************************************

Host: ADAM-PC

Timers On : Wed Jun 21 18:08:53 2017
Timers Off: Wed Jun 21 18:08:56 2017

Wall Time:        3.00 seconds


***********************************************************

Host: ADAM-PC

Timers On : Wed Jun 21 18:09:03 2017
Timers Off: Wed Jun 21 18:09:05 2017

Wall Time:        2.00 seconds


***********************************************************

Host: ADAM-PC

Timers On : Wed Jun 21 18:09:26 2017
Timers Off: Wed Jun 21 18:09:28 2017

Wall Time:        2.00 seconds


***********************************************************

Host: ADAM-PC

Timers On : Wed Jun 21 18:10:07 2017
Timers Off: Wed Jun 21 18:10:08 2017

Wall Time:        1.00 seconds


***********************************************************

Host: ADAM-PC

Timers On : Wed Jun 21 18:10:24 2017
Timers Off: Wed Jun 21 18:10:25 2017

Wall Time:        1.00 seconds


***********************************************************

Host: ADAM-PC

Timers On : Wed Jun 21 18:11:00 2017
Timers Off: Wed Jun 21 18:11:06 2017

Wall Time:        6.00 seconds


***********************************************************

Host: ADAM-PC

Timers On : Wed Jun 21 18:11:18 2017
Timers Off: Wed Jun 21 18:21:26 2017

Wall Time:      608.00 seconds


***********************************************************

Host: ADAM-PC

Timers On : Mon Jun 26 19:22:35 2017
Timers Off: Mon Jun 26 19:22:37 2017

Wall Time:        2.00 seconds


***********************************************************
