
Host: ADAM-PC

Timers On : Mon Feb 27 14:07:28 2017
Timers Off: Mon Feb 27 14:07:29 2017

Wall Time:        1.00 seconds


***********************************************************

Host: ADAM-PC

Timers On : Mon Feb 27 14:07:43 2017
Timers Off: Mon Feb 27 14:07:44 2017

Wall Time:        1.00 seconds


***********************************************************

Host: ADAM-PC

Timers On : Mon Feb 27 14:10:36 2017
Timers Off: Mon Feb 27 14:10:37 2017

Wall Time:        1.00 seconds


***********************************************************

Host: ADAM-PC

Timers On : Mon Feb 27 16:18:53 2017
Timers Off: Mon Feb 27 16:18:56 2017

Wall Time:        3.00 seconds


***********************************************************

Host: ADAM-PC

Timers On : Mon Feb 27 16:19:25 2017
Timers Off: Mon Feb 27 16:19:27 2017

Wall Time:        2.00 seconds


***********************************************************

Host: ADAM-PC

Timers On : Mon Feb 27 17:04:25 2017
Timers Off: Mon Feb 27 17:04:28 2017

Wall Time:        3.00 seconds


***********************************************************

Host: ADAM-PC

Timers On : Mon Feb 27 17:05:41 2017
Timers Off: Mon Feb 27 17:07:39 2017

Wall Time:      118.00 seconds


***********************************************************

Host: ADAM-PC

Timers On : Mon Feb 27 17:08:31 2017
Timers Off: Mon Feb 27 17:08:33 2017

Wall Time:        2.00 seconds


***********************************************************

Host: ADAM-PC

Timers On : Mon Feb 27 17:09:02 2017
Timers Off: Mon Feb 27 17:09:03 2017

Wall Time:        1.00 seconds


***********************************************************

Host: ADAM-PC

Timers On : Mon Feb 27 17:12:59 2017
Timers Off: Mon Feb 27 17:13:00 2017

Wall Time:        1.00 seconds


***********************************************************

Host: ADAM-PC

Timers On : Mon Feb 27 17:18:05 2017
Timers Off: Mon Feb 27 17:18:06 2017

Wall Time:        1.00 seconds


***********************************************************

Host: ADAM-PC

Timers On : Mon Feb 27 17:18:42 2017
Timers Off: Mon Feb 27 17:18:43 2017

Wall Time:        1.00 seconds


***********************************************************

Host: ADAM-PC

Timers On : Mon Feb 27 17:20:36 2017
Timers Off: Mon Feb 27 17:20:38 2017

Wall Time:        2.00 seconds


***********************************************************

Host: ADAM-PC

Timers On : Mon Feb 27 17:25:36 2017
Timers Off: Mon Feb 27 17:25:38 2017

Wall Time:        2.00 seconds


***********************************************************

Host: ADAM-PC

Timers On : Mon Feb 27 17:28:15 2017
Timers Off: Mon Feb 27 17:28:17 2017

Wall Time:        2.00 seconds


***********************************************************

Host: ADAM-PC

Timers On : Mon Feb 27 17:29:27 2017
Timers Off: Mon Feb 27 17:29:27 2017

Wall Time:        0.00 seconds


***********************************************************

Host: ADAM-PC

Timers On : Mon Feb 27 17:32:16 2017
Timers Off: Mon Feb 27 17:32:17 2017

Wall Time:        1.00 seconds


***********************************************************

Host: ADAM-PC

Timers On : Mon Feb 27 17:33:36 2017
Timers Off: Mon Feb 27 17:33:37 2017

Wall Time:        1.00 seconds


***********************************************************

Host: ADAM-PC

Timers On : Mon Feb 27 17:36:50 2017
Timers Off: Mon Feb 27 17:36:51 2017

Wall Time:        1.00 seconds


***********************************************************

Host: ADAM-PC

Timers On : Mon Feb 27 17:37:17 2017
Timers Off: Mon Feb 27 17:37:20 2017

Wall Time:        3.00 seconds


***********************************************************

Host: ADAM-PC

Timers On : Mon Feb 27 17:38:29 2017
Timers Off: Mon Feb 27 17:38:31 2017

Wall Time:        2.00 seconds


***********************************************************

Host: ADAM-PC

Timers On : Mon Feb 27 17:39:59 2017
Timers Off: Mon Feb 27 17:40:00 2017

Wall Time:        1.00 seconds


***********************************************************

Host: ADAM-PC

Timers On : Mon Feb 27 17:40:40 2017
Timers Off: Mon Feb 27 17:40:40 2017

Wall Time:        0.00 seconds


***********************************************************

Host: ADAM-PC

Timers On : Mon Feb 27 17:43:02 2017
Timers Off: Mon Feb 27 17:43:03 2017

Wall Time:        1.00 seconds


***********************************************************

Host: ADAM-PC

Timers On : Mon Feb 27 17:43:41 2017
Timers Off: Mon Feb 27 17:43:41 2017

Wall Time:        0.00 seconds


***********************************************************

Host: ADAM-PC

Timers On : Mon Feb 27 17:45:07 2017
Timers Off: Mon Feb 27 17:45:07 2017

Wall Time:        0.00 seconds


***********************************************************

Host: ADAM-PC

Timers On : Mon Feb 27 17:45:50 2017
Timers Off: Mon Feb 27 17:45:51 2017

Wall Time:        1.00 seconds


***********************************************************

Host: ADAM-PC

Timers On : Mon Feb 27 17:46:30 2017
Timers Off: Mon Feb 27 17:46:31 2017

Wall Time:        1.00 seconds


***********************************************************

Host: ADAM-PC

Timers On : Mon Feb 27 17:47:12 2017
Timers Off: Mon Feb 27 17:47:12 2017

Wall Time:        0.00 seconds


***********************************************************

Host: ADAM-PC

Timers On : Mon Feb 27 19:41:29 2017
Timers Off: Mon Feb 27 19:41:30 2017

Wall Time:        1.00 seconds


***********************************************************

Host: ADAM-PC

Timers On : Mon Feb 27 19:41:59 2017
Timers Off: Mon Feb 27 19:42:01 2017

Wall Time:        2.00 seconds


***********************************************************

Host: ADAM-PC

Timers On : Mon Feb 27 19:43:05 2017
Timers Off: Mon Feb 27 19:43:07 2017

Wall Time:        2.00 seconds


***********************************************************

Host: ADAM-PC

Timers On : Mon Feb 27 19:46:16 2017
Timers Off: Mon Feb 27 19:46:17 2017

Wall Time:        1.00 seconds


***********************************************************

Host: ADAM-PC

Timers On : Mon Feb 27 19:46:36 2017
Timers Off: Mon Feb 27 19:46:37 2017

Wall Time:        1.00 seconds


***********************************************************

Host: ADAM-PC

Timers On : Mon Feb 27 19:48:39 2017
Timers Off: Mon Feb 27 19:48:40 2017

Wall Time:        1.00 seconds


***********************************************************

Host: ADAM-PC

Timers On : Mon Feb 27 19:50:14 2017
Timers Off: Mon Feb 27 19:50:15 2017

Wall Time:        1.00 seconds


***********************************************************

Host: ADAM-PC

Timers On : Mon Feb 27 19:50:43 2017
Timers Off: Mon Feb 27 19:50:45 2017

Wall Time:        2.00 seconds


***********************************************************

Host: ADAM-PC

Timers On : Mon Feb 27 19:53:11 2017
Timers Off: Mon Feb 27 19:53:12 2017

Wall Time:        1.00 seconds


***********************************************************

Host: ADAM-PC

Timers On : Mon Feb 27 19:56:36 2017
Timers Off: Mon Feb 27 19:56:38 2017

Wall Time:        2.00 seconds


***********************************************************

Host: ADAM-PC

Timers On : Mon Feb 27 20:02:30 2017
Timers Off: Mon Feb 27 20:02:32 2017

Wall Time:        2.00 seconds


***********************************************************

Host: ADAM-PC

Timers On : Mon Feb 27 20:10:23 2017
Timers Off: Mon Feb 27 20:10:24 2017

Wall Time:        1.00 seconds


***********************************************************

Host: ADAM-PC

Timers On : Mon Feb 27 20:11:11 2017
Timers Off: Mon Feb 27 20:11:13 2017

Wall Time:        2.00 seconds


***********************************************************

Host: ADAM-PC

Timers On : Mon Feb 27 20:11:21 2017
Timers Off: Mon Feb 27 20:11:22 2017

Wall Time:        1.00 seconds


***********************************************************

Host: ADAM-PC

Timers On : Mon Feb 27 20:11:56 2017
Timers Off: Mon Feb 27 20:11:58 2017

Wall Time:        2.00 seconds


***********************************************************

Host: ADAM-PC

Timers On : Mon Feb 27 20:13:00 2017
Timers Off: Mon Feb 27 20:13:02 2017

Wall Time:        2.00 seconds


***********************************************************

Host: ADAM-PC

Timers On : Mon Feb 27 20:14:54 2017
Timers Off: Mon Feb 27 20:14:55 2017

Wall Time:        1.00 seconds


***********************************************************

Host: ADAM-PC

Timers On : Mon Feb 27 20:15:43 2017
Timers Off: Mon Feb 27 20:15:45 2017

Wall Time:        2.00 seconds


***********************************************************

Host: ADAM-PC

Timers On : Mon Feb 27 20:15:52 2017
Timers Off: Mon Feb 27 20:15:54 2017

Wall Time:        2.00 seconds


***********************************************************

Host: ADAM-PC

Timers On : Mon Feb 27 20:16:37 2017
Timers Off: Mon Feb 27 20:16:38 2017

Wall Time:        1.00 seconds


***********************************************************

Host: ADAM-PC

Timers On : Mon Feb 27 20:17:12 2017
Timers Off: Mon Feb 27 20:17:14 2017

Wall Time:        2.00 seconds


***********************************************************

Host: ADAM-PC

Timers On : Mon Feb 27 20:17:57 2017
Timers Off: Mon Feb 27 20:17:59 2017

Wall Time:        2.00 seconds


***********************************************************

Host: ADAM-PC

Timers On : Mon Feb 27 20:18:32 2017
Timers Off: Mon Feb 27 20:18:33 2017

Wall Time:        1.00 seconds


***********************************************************

Host: ADAM-PC

Timers On : Mon Feb 27 20:19:05 2017
Timers Off: Mon Feb 27 20:19:06 2017

Wall Time:        1.00 seconds


***********************************************************

Host: ADAM-PC

Timers On : Mon Feb 27 20:19:37 2017
Timers Off: Mon Feb 27 20:19:38 2017

Wall Time:        1.00 seconds


***********************************************************

Host: ADAM-PC

Timers On : Mon Feb 27 20:20:40 2017
Timers Off: Mon Feb 27 20:20:42 2017

Wall Time:        2.00 seconds


***********************************************************

Host: ADAM-PC

Timers On : Mon Feb 27 20:21:21 2017
Timers Off: Mon Feb 27 20:21:23 2017

Wall Time:        2.00 seconds


***********************************************************

Host: ADAM-PC

Timers On : Mon Feb 27 20:21:43 2017
Timers Off: Mon Feb 27 20:21:44 2017

Wall Time:        1.00 seconds


***********************************************************

Host: ADAM-PC

Timers On : Mon Feb 27 20:22:59 2017
Timers Off: Mon Feb 27 20:23:01 2017

Wall Time:        2.00 seconds


***********************************************************

Host: ADAM-PC

Timers On : Mon Feb 27 20:24:09 2017
Timers Off: Mon Feb 27 20:24:11 2017

Wall Time:        2.00 seconds


***********************************************************

Host: ADAM-PC

Timers On : Mon Feb 27 20:29:16 2017
Timers Off: Mon Feb 27 20:29:18 2017

Wall Time:        2.00 seconds


***********************************************************

Host: ADAM-PC

Timers On : Mon Feb 27 20:29:43 2017
Timers Off: Mon Feb 27 20:30:05 2017

Wall Time:       22.00 seconds


***********************************************************

Host: ADAM-PC

Timers On : Mon Feb 27 20:34:05 2017
Timers Off: Mon Feb 27 20:35:50 2017

Wall Time:      105.00 seconds


***********************************************************

Host: ADAM-PC

Timers On : Mon Feb 27 20:37:45 2017
Timers Off: Mon Feb 27 20:38:12 2017

Wall Time:       27.00 seconds


***********************************************************

Host: ADAM-PC

Timers On : Mon Feb 27 20:38:42 2017
Timers Off: Mon Feb 27 20:39:36 2017

Wall Time:       54.00 seconds


***********************************************************

Host: ADAM-PC

Timers On : Mon Feb 27 20:42:29 2017
Timers Off: Mon Feb 27 20:42:49 2017

Wall Time:       20.00 seconds


***********************************************************

Host: ADAM-PC

Timers On : Mon Feb 27 20:43:40 2017
Timers Off: Mon Feb 27 20:43:52 2017

Wall Time:       12.00 seconds


***********************************************************

Host: ADAM-PC

Timers On : Mon Feb 27 20:45:36 2017
Timers Off: Mon Feb 27 20:45:48 2017

Wall Time:       12.00 seconds


***********************************************************

Host: ADAM-PC

Timers On : Mon Feb 27 20:47:39 2017
Timers Off: Mon Feb 27 20:47:46 2017

Wall Time:        7.00 seconds


***********************************************************

Host: ADAM-PC

Timers On : Mon Feb 27 20:49:17 2017
Timers Off: Mon Feb 27 20:49:27 2017

Wall Time:       10.00 seconds


***********************************************************

Host: ADAM-PC

Timers On : Mon Feb 27 20:57:38 2017
Timers Off: Mon Feb 27 20:57:49 2017

Wall Time:       11.00 seconds


***********************************************************

Host: ADAM-PC

Timers On : Mon Feb 27 21:04:56 2017
Timers Off: Mon Feb 27 21:05:05 2017

Wall Time:        9.00 seconds


***********************************************************

Host: ADAM-PC

Timers On : Mon Feb 27 21:05:34 2017
Timers Off: Mon Feb 27 21:06:06 2017

Wall Time:       32.00 seconds


***********************************************************

Host: ADAM-PC

Timers On : Mon Feb 27 21:07:25 2017
Timers Off: Mon Feb 27 21:08:10 2017

Wall Time:       45.00 seconds


***********************************************************

Host: ADAM-PC

Timers On : Mon Feb 27 21:09:27 2017
Timers Off: Mon Feb 27 21:10:17 2017

Wall Time:       50.00 seconds


***********************************************************

Host: ADAM-PC

Timers On : Mon Feb 27 21:11:30 2017
Timers Off: Mon Feb 27 21:12:19 2017

Wall Time:       49.00 seconds


***********************************************************

Host: ADAM-PC

Timers On : Mon Feb 27 21:15:30 2017
Timers Off: Mon Feb 27 21:16:20 2017

Wall Time:       50.00 seconds


***********************************************************

Host: ADAM-PC

Timers On : Tue Feb 28 09:03:27 2017
Timers Off: Tue Feb 28 09:03:46 2017

Wall Time:       19.00 seconds


***********************************************************

Host: ADAM-PC

Timers On : Tue Feb 28 09:05:18 2017
Timers Off: Tue Feb 28 09:05:57 2017

Wall Time:       39.00 seconds


***********************************************************

Host: ADAM-PC

Timers On : Tue Feb 28 09:14:23 2017
Timers Off: Tue Feb 28 09:14:30 2017

Wall Time:        7.00 seconds


***********************************************************

Host: ADAM-PC

Timers On : Tue Feb 28 09:14:51 2017
Timers Off: Tue Feb 28 09:15:00 2017

Wall Time:        9.00 seconds


***********************************************************

Host: ADAM-PC

Timers On : Tue Feb 28 09:43:03 2017
Timers Off: Tue Feb 28 09:43:05 2017

Wall Time:        2.00 seconds


***********************************************************

Host: ADAM-PC

Timers On : Tue Feb 28 09:43:55 2017
Timers Off: Tue Feb 28 09:44:00 2017

Wall Time:        5.00 seconds


***********************************************************

Host: ADAM-PC

Timers On : Tue Feb 28 10:03:49 2017
Timers Off: Tue Feb 28 10:03:52 2017

Wall Time:        3.00 seconds


***********************************************************

Host: ADAM-PC

Timers On : Tue Feb 28 10:04:37 2017
Timers Off: Tue Feb 28 10:04:41 2017

Wall Time:        4.00 seconds


***********************************************************

Host: ADAM-PC

Timers On : Tue Feb 28 10:41:06 2017
Timers Off: Tue Feb 28 10:41:08 2017

Wall Time:        2.00 seconds


***********************************************************

Host: ADAM-PC

Timers On : Tue Feb 28 10:41:49 2017
Timers Off: Tue Feb 28 10:41:51 2017

Wall Time:        2.00 seconds


***********************************************************

Host: ADAM-PC

Timers On : Tue Feb 28 10:42:52 2017
Timers Off: Tue Feb 28 10:42:53 2017

Wall Time:        1.00 seconds


***********************************************************

Host: ADAM-PC

Timers On : Tue Feb 28 10:43:19 2017
Timers Off: Tue Feb 28 10:43:24 2017

Wall Time:        5.00 seconds


***********************************************************

Host: ADAM-PC

Timers On : Tue Feb 28 10:54:29 2017
Timers Off: Tue Feb 28 10:54:57 2017

Wall Time:       28.00 seconds


***********************************************************

Host: ADAM-PC

Timers On : Tue Feb 28 10:55:23 2017
Timers Off: Tue Feb 28 10:55:26 2017

Wall Time:        3.00 seconds


***********************************************************

Host: ADAM-PC

Timers On : Tue Feb 28 10:55:44 2017
Timers Off: Tue Feb 28 10:55:45 2017

Wall Time:        1.00 seconds


***********************************************************

Host: ADAM-PC

Timers On : Tue Feb 28 10:59:40 2017
Timers Off: Tue Feb 28 10:59:42 2017

Wall Time:        2.00 seconds


***********************************************************

Host: ADAM-PC

Timers On : Tue Feb 28 11:03:06 2017
Timers Off: Tue Feb 28 11:03:07 2017

Wall Time:        1.00 seconds


***********************************************************

Host: ADAM-PC

Timers On : Tue Feb 28 11:05:39 2017
Timers Off: Tue Feb 28 11:05:40 2017

Wall Time:        1.00 seconds


***********************************************************

Host: ADAM-PC

Timers On : Tue Feb 28 11:08:21 2017
Timers Off: Tue Feb 28 11:08:23 2017

Wall Time:        2.00 seconds


***********************************************************

Host: ADAM-PC

Timers On : Tue Feb 28 11:10:17 2017
Timers Off: Tue Feb 28 11:10:24 2017

Wall Time:        7.00 seconds


***********************************************************

Host: ADAM-PC

Timers On : Tue Feb 28 11:11:59 2017
Timers Off: Tue Feb 28 11:12:00 2017

Wall Time:        1.00 seconds


***********************************************************

Host: ADAM-PC

Timers On : Tue Feb 28 11:51:02 2017
Timers Off: Tue Feb 28 11:51:03 2017

Wall Time:        1.00 seconds


***********************************************************

Host: ADAM-PC

Timers On : Tue Feb 28 11:53:51 2017
Timers Off: Tue Feb 28 11:53:52 2017

Wall Time:        1.00 seconds


***********************************************************

Host: ADAM-PC

Timers On : Tue Feb 28 11:54:09 2017
Timers Off: Tue Feb 28 11:54:10 2017

Wall Time:        1.00 seconds


***********************************************************

Host: ADAM-PC

Timers On : Tue Feb 28 11:54:49 2017
Timers Off: Tue Feb 28 11:54:51 2017

Wall Time:        2.00 seconds


***********************************************************

Host: ADAM-PC

Timers On : Tue Feb 28 11:55:01 2017
Timers Off: Tue Feb 28 11:55:03 2017

Wall Time:        2.00 seconds


***********************************************************

Host: ADAM-PC

Timers On : Tue Feb 28 11:55:49 2017
Timers Off: Tue Feb 28 11:58:30 2017

Wall Time:      161.00 seconds


***********************************************************

Host: ADAM-PC

Timers On : Tue Feb 28 11:58:44 2017
Timers Off: Tue Feb 28 12:00:20 2017

Wall Time:       96.00 seconds


***********************************************************

Host: ADAM-PC

Timers On : Tue Feb 28 13:44:53 2017
Timers Off: Tue Feb 28 13:45:15 2017

Wall Time:       22.00 seconds


***********************************************************

Host: ADAM-PC

Timers On : Tue Feb 28 13:45:52 2017
Timers Off: Tue Feb 28 13:48:42 2017

Wall Time:      170.00 seconds


***********************************************************

Host: ADAM-PC

Timers On : Tue Feb 28 13:51:14 2017
Timers Off: Tue Feb 28 13:52:05 2017

Wall Time:       51.00 seconds


***********************************************************

Host: ADAM-PC

Timers On : Tue Feb 28 13:52:40 2017
Timers Off: Tue Feb 28 13:53:07 2017

Wall Time:       27.00 seconds


***********************************************************

Host: ADAM-PC

Timers On : Tue Feb 28 13:54:03 2017
Timers Off: Tue Feb 28 13:55:26 2017

Wall Time:       83.00 seconds


***********************************************************

Host: ADAM-PC

Timers On : Tue Feb 28 14:06:09 2017
Timers Off: Tue Feb 28 14:06:32 2017

Wall Time:       23.00 seconds


***********************************************************

Host: ADAM-PC

Timers On : Tue Feb 28 14:07:28 2017
Timers Off: Tue Feb 28 14:07:52 2017

Wall Time:       24.00 seconds


***********************************************************

Host: ADAM-PC

Timers On : Tue Feb 28 14:08:50 2017
Timers Off: Tue Feb 28 14:09:25 2017

Wall Time:       35.00 seconds


***********************************************************

Host: ADAM-PC

Timers On : Tue Feb 28 14:12:46 2017
Timers Off: Tue Feb 28 14:12:57 2017

Wall Time:       11.00 seconds


***********************************************************

Host: ADAM-PC

Timers On : Tue Feb 28 14:13:02 2017
Timers Off: Tue Feb 28 14:13:03 2017

Wall Time:        1.00 seconds


***********************************************************

Host: ADAM-PC

Timers On : Tue Feb 28 14:13:42 2017
Timers Off: Tue Feb 28 14:13:44 2017

Wall Time:        2.00 seconds


***********************************************************

Host: ADAM-PC

Timers On : Tue Feb 28 14:15:51 2017
Timers Off: Tue Feb 28 14:15:53 2017

Wall Time:        2.00 seconds


***********************************************************

Host: ADAM-PC

Timers On : Tue Feb 28 14:17:15 2017
Timers Off: Tue Feb 28 14:17:18 2017

Wall Time:        3.00 seconds


***********************************************************

Host: ADAM-PC

Timers On : Tue Feb 28 14:18:10 2017
Timers Off: Tue Feb 28 14:18:12 2017

Wall Time:        2.00 seconds


***********************************************************

Host: ADAM-PC

Timers On : Tue Feb 28 14:18:49 2017
Timers Off: Tue Feb 28 14:18:51 2017

Wall Time:        2.00 seconds


***********************************************************

Host: ADAM-PC

Timers On : Tue Feb 28 14:24:31 2017
Timers Off: Tue Feb 28 14:24:33 2017

Wall Time:        2.00 seconds


***********************************************************

Host: ADAM-PC

Timers On : Tue Feb 28 14:36:23 2017
Timers Off: Tue Feb 28 14:36:25 2017

Wall Time:        2.00 seconds


***********************************************************

Host: ADAM-PC

Timers On : Tue Feb 28 14:37:16 2017
Timers Off: Tue Feb 28 14:37:33 2017

Wall Time:       17.00 seconds


***********************************************************

Host: ADAM-PC

Timers On : Tue Feb 28 14:37:59 2017
Timers Off: Tue Feb 28 14:38:28 2017

Wall Time:       29.00 seconds


***********************************************************

Host: ADAM-PC

Timers On : Tue Feb 28 14:41:34 2017
Timers Off: Tue Feb 28 14:41:47 2017

Wall Time:       13.00 seconds


***********************************************************

Host: ADAM-PC

Timers On : Tue Feb 28 14:42:10 2017
Timers Off: Tue Feb 28 14:42:16 2017

Wall Time:        6.00 seconds


***********************************************************

Host: ADAM-PC

Timers On : Tue Feb 28 14:42:33 2017
Timers Off: Tue Feb 28 14:42:34 2017

Wall Time:        1.00 seconds


***********************************************************

Host: ADAM-PC

Timers On : Tue Feb 28 14:42:49 2017
Timers Off: Tue Feb 28 14:42:51 2017

Wall Time:        2.00 seconds


***********************************************************

Host: ADAM-PC

Timers On : Tue Feb 28 14:45:59 2017
Timers Off: Tue Feb 28 14:46:01 2017

Wall Time:        2.00 seconds


***********************************************************

Host: ADAM-PC

Timers On : Tue Feb 28 14:46:11 2017
Timers Off: Tue Feb 28 14:46:13 2017

Wall Time:        2.00 seconds


***********************************************************

Host: ADAM-PC

Timers On : Tue Feb 28 14:46:43 2017
Timers Off: Tue Feb 28 14:46:46 2017

Wall Time:        3.00 seconds


***********************************************************

Host: ADAM-PC

Timers On : Tue Feb 28 14:47:31 2017
Timers Off: Tue Feb 28 14:47:34 2017

Wall Time:        3.00 seconds


***********************************************************

Host: ADAM-PC

Timers On : Tue Feb 28 14:47:42 2017
Timers Off: Tue Feb 28 14:47:44 2017

Wall Time:        2.00 seconds


***********************************************************

Host: ADAM-PC

Timers On : Tue Feb 28 14:50:58 2017
Timers Off: Tue Feb 28 14:51:08 2017

Wall Time:       10.00 seconds


***********************************************************

Host: ADAM-PC

Timers On : Tue Feb 28 14:51:15 2017
Timers Off: Tue Feb 28 14:51:16 2017

Wall Time:        1.00 seconds


***********************************************************

Host: ADAM-PC

Timers On : Tue Feb 28 14:52:08 2017
Timers Off: Tue Feb 28 14:52:09 2017

Wall Time:        1.00 seconds


***********************************************************

Host: ADAM-PC

Timers On : Tue Feb 28 14:52:14 2017
Timers Off: Tue Feb 28 14:52:24 2017

Wall Time:       10.00 seconds


***********************************************************

Host: ADAM-PC

Timers On : Tue Feb 28 14:57:07 2017
Timers Off: Tue Feb 28 14:57:12 2017

Wall Time:        5.00 seconds


***********************************************************

Host: ADAM-PC

Timers On : Tue Feb 28 14:58:01 2017
Timers Off: Tue Feb 28 14:58:02 2017

Wall Time:        1.00 seconds


***********************************************************

Host: ADAM-PC

Timers On : Tue Feb 28 15:08:04 2017
Timers Off: Tue Feb 28 15:08:05 2017

Wall Time:        1.00 seconds


***********************************************************

Host: ADAM-PC

Timers On : Tue Feb 28 15:08:50 2017
Timers Off: Tue Feb 28 15:08:52 2017

Wall Time:        2.00 seconds


***********************************************************

Host: ADAM-PC

Timers On : Tue Feb 28 15:09:13 2017
Timers Off: Tue Feb 28 15:09:13 2017

Wall Time:        0.00 seconds


***********************************************************

Host: ADAM-PC

Timers On : Tue Feb 28 15:09:20 2017
Timers Off: Tue Feb 28 15:09:20 2017

Wall Time:        0.00 seconds


***********************************************************

Host: ADAM-PC

Timers On : Tue Feb 28 15:10:29 2017
Timers Off: Tue Feb 28 15:10:30 2017

Wall Time:        1.00 seconds


***********************************************************

Host: ADAM-PC

Timers On : Tue Feb 28 15:10:34 2017
Timers Off: Tue Feb 28 15:10:35 2017

Wall Time:        1.00 seconds


***********************************************************

Host: ADAM-PC

Timers On : Tue Feb 28 15:11:00 2017
Timers Off: Tue Feb 28 15:11:01 2017

Wall Time:        1.00 seconds


***********************************************************

Host: ADAM-PC

Timers On : Tue Feb 28 15:16:57 2017
Timers Off: Tue Feb 28 15:16:58 2017

Wall Time:        1.00 seconds


***********************************************************

Host: ADAM-PC

Timers On : Tue Feb 28 15:17:35 2017
Timers Off: Tue Feb 28 15:17:36 2017

Wall Time:        1.00 seconds


***********************************************************

Host: ADAM-PC

Timers On : Tue Feb 28 15:17:44 2017
Timers Off: Tue Feb 28 15:17:45 2017

Wall Time:        1.00 seconds


***********************************************************

Host: ADAM-PC

Timers On : Tue Feb 28 15:25:44 2017
Timers Off: Tue Feb 28 15:25:45 2017

Wall Time:        1.00 seconds


***********************************************************

Host: ADAM-PC

Timers On : Tue Feb 28 15:27:54 2017
Timers Off: Tue Feb 28 15:27:54 2017

Wall Time:        0.00 seconds


***********************************************************

Host: ADAM-PC

Timers On : Tue Feb 28 15:27:58 2017
Timers Off: Tue Feb 28 15:27:59 2017

Wall Time:        1.00 seconds


***********************************************************

Host: ADAM-PC

Timers On : Tue Feb 28 15:42:12 2017
Timers Off: Tue Feb 28 15:42:12 2017

Wall Time:        0.00 seconds


***********************************************************

Host: ADAM-PC

Timers On : Tue Feb 28 15:43:17 2017
Timers Off: Tue Feb 28 15:43:18 2017

Wall Time:        1.00 seconds


***********************************************************

Host: ADAM-PC

Timers On : Tue Feb 28 15:44:14 2017
Timers Off: Tue Feb 28 15:44:15 2017

Wall Time:        1.00 seconds


***********************************************************

Host: ADAM-PC

Timers On : Tue Feb 28 15:45:05 2017
Timers Off: Tue Feb 28 15:45:06 2017

Wall Time:        1.00 seconds


***********************************************************

Host: ADAM-PC

Timers On : Tue Feb 28 15:46:36 2017
Timers Off: Tue Feb 28 15:46:37 2017

Wall Time:        1.00 seconds


***********************************************************

Host: ADAM-PC

Timers On : Tue Feb 28 15:46:40 2017
Timers Off: Tue Feb 28 15:46:41 2017

Wall Time:        1.00 seconds


***********************************************************

Host: ADAM-PC

Timers On : Tue Feb 28 15:48:30 2017
Timers Off: Tue Feb 28 15:48:31 2017

Wall Time:        1.00 seconds


***********************************************************

Host: ADAM-PC

Timers On : Tue Feb 28 15:48:55 2017
Timers Off: Tue Feb 28 15:48:56 2017

Wall Time:        1.00 seconds


***********************************************************

Host: ADAM-PC

Timers On : Tue Feb 28 16:14:45 2017
Timers Off: Tue Feb 28 16:14:46 2017

Wall Time:        1.00 seconds


***********************************************************

Host: ADAM-PC

Timers On : Tue Feb 28 16:16:52 2017
Timers Off: Tue Feb 28 16:16:53 2017

Wall Time:        1.00 seconds


***********************************************************

Host: ADAM-PC

Timers On : Tue Feb 28 16:46:19 2017
Timers Off: Tue Feb 28 16:46:19 2017

Wall Time:        0.00 seconds


***********************************************************

Host: ADAM-PC

Timers On : Tue Feb 28 16:46:26 2017
Timers Off: Tue Feb 28 16:46:27 2017

Wall Time:        1.00 seconds


***********************************************************

Host: ADAM-PC

Timers On : Tue Feb 28 16:46:32 2017
Timers Off: Tue Feb 28 16:46:33 2017

Wall Time:        1.00 seconds


***********************************************************

Host: ADAM-PC

Timers On : Tue Feb 28 17:30:36 2017
Timers Off: Tue Feb 28 17:30:38 2017

Wall Time:        2.00 seconds


***********************************************************

Host: ADAM-PC

Timers On : Tue Feb 28 17:32:16 2017
Timers Off: Tue Feb 28 17:32:17 2017

Wall Time:        1.00 seconds


***********************************************************

Host: ADAM-PC

Timers On : Tue Feb 28 17:32:37 2017
Timers Off: Tue Feb 28 17:32:39 2017

Wall Time:        2.00 seconds


***********************************************************

Host: ADAM-PC

Timers On : Tue Feb 28 17:35:15 2017
Timers Off: Tue Feb 28 17:35:17 2017

Wall Time:        2.00 seconds


***********************************************************

Host: ADAM-PC

Timers On : Tue Feb 28 17:36:05 2017
Timers Off: Tue Feb 28 17:36:07 2017

Wall Time:        2.00 seconds


***********************************************************

Host: ADAM-PC

Timers On : Tue Feb 28 17:36:14 2017
Timers Off: Tue Feb 28 17:36:15 2017

Wall Time:        1.00 seconds


***********************************************************

Host: ADAM-PC

Timers On : Tue Feb 28 17:37:18 2017
Timers Off: Tue Feb 28 17:37:19 2017

Wall Time:        1.00 seconds


***********************************************************

Host: ADAM-PC

Timers On : Tue Feb 28 17:37:31 2017
Timers Off: Tue Feb 28 17:38:02 2017

Wall Time:       31.00 seconds


***********************************************************

Host: ADAM-PC

Timers On : Tue Feb 28 17:44:18 2017
Timers Off: Tue Feb 28 17:44:25 2017

Wall Time:        7.00 seconds


***********************************************************

Host: ADAM-PC

Timers On : Tue Feb 28 17:45:03 2017
Timers Off: Tue Feb 28 17:45:42 2017

Wall Time:       39.00 seconds


***********************************************************

Host: ADAM-PC

Timers On : Tue Feb 28 17:46:16 2017
Timers Off: Tue Feb 28 17:46:38 2017

Wall Time:       22.00 seconds


***********************************************************

Host: ADAM-PC

Timers On : Tue Feb 28 18:01:37 2017
Timers Off: Tue Feb 28 18:02:17 2017

Wall Time:       40.00 seconds


***********************************************************

Host: ADAM-PC

Timers On : Tue Feb 28 18:25:02 2017
Timers Off: Tue Feb 28 18:25:10 2017

Wall Time:        8.00 seconds


***********************************************************

Host: ADAM-PC

Timers On : Tue Feb 28 18:25:53 2017
Timers Off: Tue Feb 28 18:26:34 2017

Wall Time:       41.00 seconds


***********************************************************

Host: ADAM-PC

Timers On : Tue Feb 28 18:30:27 2017
Timers Off: Tue Feb 28 18:31:08 2017

Wall Time:       41.00 seconds


***********************************************************

Host: ADAM-PC

Timers On : Tue Feb 28 18:37:16 2017
Timers Off: Tue Feb 28 18:37:43 2017

Wall Time:       27.00 seconds


***********************************************************

Host: ADAM-PC

Timers On : Tue Feb 28 18:39:11 2017
Timers Off: Tue Feb 28 18:40:12 2017

Wall Time:       61.00 seconds


***********************************************************

Host: ADAM-PC

Timers On : Tue Feb 28 18:41:05 2017
Timers Off: Tue Feb 28 18:41:46 2017

Wall Time:       41.00 seconds


***********************************************************

Host: ADAM-PC

Timers On : Tue Feb 28 18:42:27 2017
Timers Off: Tue Feb 28 18:42:32 2017

Wall Time:        5.00 seconds


***********************************************************

Host: ADAM-PC

Timers On : Tue Feb 28 18:42:39 2017
Timers Off: Tue Feb 28 18:43:40 2017

Wall Time:       61.00 seconds


***********************************************************

Host: ADAM-PC

Timers On : Tue Feb 28 18:47:27 2017
Timers Off: Tue Feb 28 18:48:35 2017

Wall Time:       68.00 seconds


***********************************************************

Host: ADAM-PC

Timers On : Tue Feb 28 18:49:09 2017
Timers Off: Tue Feb 28 18:50:11 2017

Wall Time:       62.00 seconds


***********************************************************

Host: ADAM-PC

Timers On : Tue Feb 28 18:54:58 2017
Timers Off: Tue Feb 28 18:55:59 2017

Wall Time:       61.00 seconds


***********************************************************

Host: ADAM-PC

Timers On : Tue Feb 28 18:58:14 2017
Timers Off: Tue Feb 28 18:59:16 2017

Wall Time:       62.00 seconds


***********************************************************

Host: ADAM-PC

Timers On : Tue Feb 28 19:32:41 2017
Timers Off: Tue Feb 28 19:32:58 2017

Wall Time:       17.00 seconds


***********************************************************

Host: ADAM-PC

Timers On : Tue Feb 28 19:33:02 2017
Timers Off: Tue Feb 28 19:33:41 2017

Wall Time:       39.00 seconds


***********************************************************

Host: ADAM-PC

Timers On : Tue Feb 28 19:36:35 2017
Timers Off: Tue Feb 28 19:38:32 2017

Wall Time:      117.00 seconds


***********************************************************

Host: ADAM-PC

Timers On : Tue Feb 28 19:39:31 2017
Timers Off: Tue Feb 28 19:40:32 2017

Wall Time:       61.00 seconds


***********************************************************

Host: ADAM-PC

Timers On : Wed Mar  1 10:50:20 2017
Timers Off: Wed Mar  1 10:51:21 2017

Wall Time:       61.00 seconds


***********************************************************

Host: ADAM-PC

Timers On : Wed Mar  1 11:04:53 2017
Timers Off: Wed Mar  1 11:04:54 2017

Wall Time:        1.00 seconds


***********************************************************

Host: ADAM-PC

Timers On : Wed Mar  1 11:05:05 2017
Timers Off: Wed Mar  1 11:06:07 2017

Wall Time:       62.00 seconds


***********************************************************

Host: ADAM-PC

Timers On : Tue Mar 28 08:55:43 2017
Timers Off: Tue Mar 28 08:55:52 2017

Wall Time:        9.00 seconds


***********************************************************

Host: ADAM-PC

Timers On : Tue Jun 20 20:18:21 2017
Timers Off: Tue Jun 20 20:18:22 2017

Wall Time:        1.00 seconds


***********************************************************

Host: ADAM-PC

Timers On : Tue Jun 20 20:18:34 2017
Timers Off: Tue Jun 20 20:18:36 2017

Wall Time:        2.00 seconds


***********************************************************

Host: ADAM-PC

Timers On : Tue Jun 20 20:28:41 2017
Timers Off: Tue Jun 20 20:28:43 2017

Wall Time:        2.00 seconds


***********************************************************
