
Host: ADAM-PC

Timers On : Mon Mar 27 13:42:10 2017
Timers Off: Mon Mar 27 13:42:11 2017

Wall Time:        1.00 seconds


***********************************************************

Host: ADAM-PC

Timers On : Mon Mar 27 13:49:34 2017
Timers Off: Mon Mar 27 13:49:34 2017

Wall Time:        0.00 seconds


***********************************************************

Host: ADAM-PC

Timers On : Mon Mar 27 14:15:01 2017
Timers Off: Mon Mar 27 14:15:01 2017

Wall Time:        0.00 seconds


***********************************************************

Host: ADAM-PC

Timers On : Mon Mar 27 14:19:45 2017
Timers Off: Mon Mar 27 14:19:45 2017

Wall Time:        0.00 seconds


***********************************************************

Host: ADAM-PC

Timers On : Mon Mar 27 14:20:34 2017
Timers Off: Mon Mar 27 14:20:35 2017

Wall Time:        1.00 seconds


***********************************************************

Host: ADAM-PC

Timers On : Mon Mar 27 14:27:32 2017
Timers Off: Mon Mar 27 14:27:33 2017

Wall Time:        1.00 seconds


***********************************************************

Host: ADAM-PC

Timers On : Mon Mar 27 14:38:59 2017
Timers Off: Mon Mar 27 14:39:00 2017

Wall Time:        1.00 seconds


***********************************************************

Host: ADAM-PC

Timers On : Mon Mar 27 14:39:31 2017
Timers Off: Mon Mar 27 14:39:32 2017

Wall Time:        1.00 seconds


***********************************************************

Host: ADAM-PC

Timers On : Mon Mar 27 14:42:19 2017
Timers Off: Mon Mar 27 14:42:20 2017

Wall Time:        1.00 seconds


***********************************************************

Host: ADAM-PC

Timers On : Mon Mar 27 14:43:32 2017
Timers Off: Mon Mar 27 14:43:33 2017

Wall Time:        1.00 seconds


***********************************************************

Host: ADAM-PC

Timers On : Mon Mar 27 15:04:52 2017
Timers Off: Mon Mar 27 15:04:53 2017

Wall Time:        1.00 seconds


***********************************************************

Host: ADAM-PC

Timers On : Mon Mar 27 15:05:19 2017
Timers Off: Mon Mar 27 15:05:19 2017

Wall Time:        0.00 seconds


***********************************************************

Host: ADAM-PC

Timers On : Mon Mar 27 15:06:09 2017
Timers Off: Mon Mar 27 15:06:10 2017

Wall Time:        1.00 seconds


***********************************************************

Host: ADAM-PC

Timers On : Mon Mar 27 15:06:57 2017
Timers Off: Mon Mar 27 15:06:57 2017

Wall Time:        0.00 seconds


***********************************************************

Host: ADAM-PC

Timers On : Mon Mar 27 15:30:59 2017
Timers Off: Mon Mar 27 15:31:00 2017

Wall Time:        1.00 seconds


***********************************************************

Host: ADAM-PC

Timers On : Mon Mar 27 15:32:12 2017
Timers Off: Mon Mar 27 15:32:13 2017

Wall Time:        1.00 seconds


***********************************************************

Host: ADAM-PC

Timers On : Mon Mar 27 15:33:59 2017
Timers Off: Mon Mar 27 15:34:00 2017

Wall Time:        1.00 seconds


***********************************************************

Host: ADAM-PC

Timers On : Mon Mar 27 15:34:19 2017
Timers Off: Mon Mar 27 15:34:20 2017

Wall Time:        1.00 seconds


***********************************************************

Host: ADAM-PC

Timers On : Mon Mar 27 16:08:33 2017
Timers Off: Mon Mar 27 16:08:34 2017

Wall Time:        1.00 seconds


***********************************************************

Host: ADAM-PC

Timers On : Mon Mar 27 16:11:58 2017
Timers Off: Mon Mar 27 16:11:59 2017

Wall Time:        1.00 seconds


***********************************************************

Host: ADAM-PC

Timers On : Mon Mar 27 16:14:02 2017
Timers Off: Mon Mar 27 16:14:03 2017

Wall Time:        1.00 seconds


***********************************************************

Host: ADAM-PC

Timers On : Mon Mar 27 16:16:34 2017
Timers Off: Mon Mar 27 16:16:35 2017

Wall Time:        1.00 seconds


***********************************************************

Host: ADAM-PC

Timers On : Mon Mar 27 16:18:32 2017
Timers Off: Mon Mar 27 16:18:35 2017

Wall Time:        3.00 seconds


***********************************************************

Host: ADAM-PC

Timers On : Mon Mar 27 16:24:00 2017
Timers Off: Mon Mar 27 16:24:04 2017

Wall Time:        4.00 seconds


***********************************************************

Host: ADAM-PC

Timers On : Tue Mar 28 08:34:21 2017
Timers Off: Tue Mar 28 08:34:22 2017

Wall Time:        1.00 seconds


***********************************************************

Host: ADAM-PC

Timers On : Tue Mar 28 08:36:11 2017
Timers Off: Tue Mar 28 08:36:11 2017

Wall Time:        0.00 seconds


***********************************************************

Host: ADAM-PC

Timers On : Tue Mar 28 08:38:20 2017
Timers Off: Tue Mar 28 08:38:21 2017

Wall Time:        1.00 seconds


***********************************************************

Host: ADAM-PC

Timers On : Tue Mar 28 08:39:21 2017
Timers Off: Tue Mar 28 08:39:21 2017

Wall Time:        0.00 seconds


***********************************************************

Host: ADAM-PC

Timers On : Tue Mar 28 08:40:02 2017
Timers Off: Tue Mar 28 08:40:02 2017

Wall Time:        0.00 seconds


***********************************************************

Host: ADAM-PC

Timers On : Tue Mar 28 08:40:37 2017
Timers Off: Tue Mar 28 08:40:37 2017

Wall Time:        0.00 seconds


***********************************************************

Host: ADAM-PC

Timers On : Tue Mar 28 08:41:06 2017
Timers Off: Tue Mar 28 08:41:07 2017

Wall Time:        1.00 seconds


***********************************************************

Host: ADAM-PC

Timers On : Tue Mar 28 08:42:09 2017
Timers Off: Tue Mar 28 08:42:09 2017

Wall Time:        0.00 seconds


***********************************************************

Host: ADAM-PC

Timers On : Tue Mar 28 08:42:32 2017
Timers Off: Tue Mar 28 08:42:32 2017

Wall Time:        0.00 seconds


***********************************************************

Host: ADAM-PC

Timers On : Tue Mar 28 08:42:53 2017
Timers Off: Tue Mar 28 08:42:54 2017

Wall Time:        1.00 seconds


***********************************************************

Host: ADAM-PC

Timers On : Tue Mar 28 08:46:21 2017
Timers Off: Tue Mar 28 08:46:21 2017

Wall Time:        0.00 seconds


***********************************************************

Host: ADAM-PC

Timers On : Tue Mar 28 08:46:52 2017
Timers Off: Tue Mar 28 08:46:53 2017

Wall Time:        1.00 seconds


***********************************************************

Host: ADAM-PC

Timers On : Tue Mar 28 08:47:11 2017
Timers Off: Tue Mar 28 08:47:11 2017

Wall Time:        0.00 seconds


***********************************************************

Host: ADAM-PC

Timers On : Tue Mar 28 09:19:22 2017
Timers Off: Tue Mar 28 09:19:22 2017

Wall Time:        0.00 seconds


***********************************************************

Host: ADAM-PC

Timers On : Tue Mar 28 09:19:37 2017
Timers Off: Tue Mar 28 09:19:38 2017

Wall Time:        1.00 seconds


***********************************************************

Host: ADAM-PC

Timers On : Tue Mar 28 09:19:57 2017
Timers Off: Tue Mar 28 09:19:58 2017

Wall Time:        1.00 seconds


***********************************************************

Host: ADAM-PC

Timers On : Tue Mar 28 09:21:12 2017
Timers Off: Tue Mar 28 09:21:13 2017

Wall Time:        1.00 seconds


***********************************************************

Host: ADAM-PC

Timers On : Tue Mar 28 09:33:52 2017
Timers Off: Tue Mar 28 09:33:53 2017

Wall Time:        1.00 seconds


***********************************************************

Host: ADAM-PC

Timers On : Tue Mar 28 09:33:57 2017
Timers Off: Tue Mar 28 09:33:57 2017

Wall Time:        0.00 seconds


***********************************************************

Host: ADAM-PC

Timers On : Tue Mar 28 09:36:06 2017
Timers Off: Tue Mar 28 09:36:06 2017

Wall Time:        0.00 seconds


***********************************************************

Host: ADAM-PC

Timers On : Tue Mar 28 09:51:20 2017
Timers Off: Tue Mar 28 09:51:21 2017

Wall Time:        1.00 seconds


***********************************************************

Host: ADAM-PC

Timers On : Tue Mar 28 09:52:53 2017
Timers Off: Tue Mar 28 09:52:53 2017

Wall Time:        0.00 seconds


***********************************************************

Host: ADAM-PC

Timers On : Tue Mar 28 09:53:48 2017
Timers Off: Tue Mar 28 09:53:49 2017

Wall Time:        1.00 seconds


***********************************************************

Host: ADAM-PC

Timers On : Tue Mar 28 09:54:04 2017
Timers Off: Tue Mar 28 09:54:05 2017

Wall Time:        1.00 seconds


***********************************************************

Host: ADAM-PC

Timers On : Tue Mar 28 10:00:22 2017
Timers Off: Tue Mar 28 10:00:22 2017

Wall Time:        0.00 seconds


***********************************************************

Host: ADAM-PC

Timers On : Tue Mar 28 10:01:34 2017
Timers Off: Tue Mar 28 10:01:35 2017

Wall Time:        1.00 seconds


***********************************************************

Host: ADAM-PC

Timers On : Tue Mar 28 10:07:58 2017
Timers Off: Tue Mar 28 10:07:59 2017

Wall Time:        1.00 seconds


***********************************************************

Host: ADAM-PC

Timers On : Tue Mar 28 10:08:23 2017
Timers Off: Tue Mar 28 10:08:23 2017

Wall Time:        0.00 seconds


***********************************************************

Host: ADAM-PC

Timers On : Tue Mar 28 10:11:51 2017
Timers Off: Tue Mar 28 10:11:52 2017

Wall Time:        1.00 seconds


***********************************************************

Host: ADAM-PC

Timers On : Tue Mar 28 10:15:31 2017
Timers Off: Tue Mar 28 10:15:31 2017

Wall Time:        0.00 seconds


***********************************************************

Host: ADAM-PC

Timers On : Tue Mar 28 10:15:50 2017
Timers Off: Tue Mar 28 10:15:51 2017

Wall Time:        1.00 seconds


***********************************************************

Host: ADAM-PC

Timers On : Tue Mar 28 10:19:14 2017
Timers Off: Tue Mar 28 10:19:15 2017

Wall Time:        1.00 seconds


***********************************************************

Host: ADAM-PC

Timers On : Tue Mar 28 10:21:52 2017
Timers Off: Tue Mar 28 10:21:53 2017

Wall Time:        1.00 seconds


***********************************************************

Host: ADAM-PC

Timers On : Tue Mar 28 10:28:18 2017
Timers Off: Tue Mar 28 10:28:18 2017

Wall Time:        0.00 seconds


***********************************************************

Host: ADAM-PC

Timers On : Tue Mar 28 10:29:40 2017
Timers Off: Tue Mar 28 10:29:40 2017

Wall Time:        0.00 seconds


***********************************************************

Host: ADAM-PC

Timers On : Tue Mar 28 10:30:00 2017
Timers Off: Tue Mar 28 10:30:01 2017

Wall Time:        1.00 seconds


***********************************************************

Host: ADAM-PC

Timers On : Tue Mar 28 10:31:00 2017
Timers Off: Tue Mar 28 10:31:01 2017

Wall Time:        1.00 seconds


***********************************************************

Host: ADAM-PC

Timers On : Tue Mar 28 10:31:32 2017
Timers Off: Tue Mar 28 10:31:33 2017

Wall Time:        1.00 seconds


***********************************************************

Host: ADAM-PC

Timers On : Tue Mar 28 10:31:38 2017
Timers Off: Tue Mar 28 10:31:38 2017

Wall Time:        0.00 seconds


***********************************************************

Host: ADAM-PC

Timers On : Tue Mar 28 10:32:23 2017
Timers Off: Tue Mar 28 10:32:23 2017

Wall Time:        0.00 seconds


***********************************************************

Host: ADAM-PC

Timers On : Tue Mar 28 10:38:17 2017
Timers Off: Tue Mar 28 10:38:18 2017

Wall Time:        1.00 seconds


***********************************************************

Host: ADAM-PC

Timers On : Tue Mar 28 10:38:36 2017
Timers Off: Tue Mar 28 10:38:37 2017

Wall Time:        1.00 seconds


***********************************************************

Host: ADAM-PC

Timers On : Tue Mar 28 10:43:30 2017
Timers Off: Tue Mar 28 10:43:30 2017

Wall Time:        0.00 seconds


***********************************************************

Host: ADAM-PC

Timers On : Tue Mar 28 10:47:47 2017
Timers Off: Tue Mar 28 10:47:48 2017

Wall Time:        1.00 seconds


***********************************************************

Host: ADAM-PC

Timers On : Tue Mar 28 10:49:07 2017
Timers Off: Tue Mar 28 10:49:07 2017

Wall Time:        0.00 seconds


***********************************************************

Host: ADAM-PC

Timers On : Tue Mar 28 10:50:26 2017
Timers Off: Tue Mar 28 10:50:27 2017

Wall Time:        1.00 seconds


***********************************************************

Host: ADAM-PC

Timers On : Tue Mar 28 10:56:29 2017
Timers Off: Tue Mar 28 10:56:30 2017

Wall Time:        1.00 seconds


***********************************************************

Host: ADAM-PC

Timers On : Tue Mar 28 11:04:30 2017
Timers Off: Tue Mar 28 11:04:30 2017

Wall Time:        0.00 seconds


***********************************************************

Host: ADAM-PC

Timers On : Tue Mar 28 11:05:01 2017
Timers Off: Tue Mar 28 11:05:02 2017

Wall Time:        1.00 seconds


***********************************************************

Host: ADAM-PC

Timers On : Tue Mar 28 11:06:52 2017
Timers Off: Tue Mar 28 11:06:53 2017

Wall Time:        1.00 seconds


***********************************************************

Host: ADAM-PC

Timers On : Tue Mar 28 11:07:00 2017
Timers Off: Tue Mar 28 11:07:01 2017

Wall Time:        1.00 seconds


***********************************************************

Host: ADAM-PC

Timers On : Tue Mar 28 11:18:55 2017
Timers Off: Tue Mar 28 11:18:56 2017

Wall Time:        1.00 seconds


***********************************************************

Host: ADAM-PC

Timers On : Tue Mar 28 14:17:23 2017
Timers Off: Tue Mar 28 14:17:24 2017

Wall Time:        1.00 seconds


***********************************************************

Host: ADAM-PC

Timers On : Tue Mar 28 14:18:04 2017
Timers Off: Tue Mar 28 14:18:05 2017

Wall Time:        1.00 seconds


***********************************************************

Host: ADAM-PC

Timers On : Tue Mar 28 14:20:54 2017
Timers Off: Tue Mar 28 14:20:55 2017

Wall Time:        1.00 seconds


***********************************************************

Host: ADAM-PC

Timers On : Tue Mar 28 14:23:25 2017
Timers Off: Tue Mar 28 14:23:26 2017

Wall Time:        1.00 seconds


***********************************************************

Host: ADAM-PC

Timers On : Tue Mar 28 14:24:38 2017
Timers Off: Tue Mar 28 14:24:40 2017

Wall Time:        2.00 seconds


***********************************************************

Host: ADAM-PC

Timers On : Tue Mar 28 14:31:14 2017
Timers Off: Tue Mar 28 14:31:15 2017

Wall Time:        1.00 seconds


***********************************************************

Host: ADAM-PC

Timers On : Tue Mar 28 14:33:22 2017
Timers Off: Tue Mar 28 14:33:24 2017

Wall Time:        2.00 seconds


***********************************************************

Host: ADAM-PC

Timers On : Tue Mar 28 14:35:59 2017
Timers Off: Tue Mar 28 14:36:00 2017

Wall Time:        1.00 seconds


***********************************************************

Host: ADAM-PC

Timers On : Tue Mar 28 14:37:21 2017
Timers Off: Tue Mar 28 14:37:22 2017

Wall Time:        1.00 seconds


***********************************************************

Host: ADAM-PC

Timers On : Tue Mar 28 14:38:37 2017
Timers Off: Tue Mar 28 14:38:46 2017

Wall Time:        9.00 seconds


***********************************************************

Host: ADAM-PC

Timers On : Tue Mar 28 14:39:54 2017
Timers Off: Tue Mar 28 14:39:55 2017

Wall Time:        1.00 seconds


***********************************************************

Host: ADAM-PC

Timers On : Tue Mar 28 14:40:26 2017
Timers Off: Tue Mar 28 14:40:27 2017

Wall Time:        1.00 seconds


***********************************************************

Host: ADAM-PC

Timers On : Tue Mar 28 14:41:04 2017
Timers Off: Tue Mar 28 14:41:06 2017

Wall Time:        2.00 seconds


***********************************************************

Host: ADAM-PC

Timers On : Tue Mar 28 14:41:34 2017
Timers Off: Tue Mar 28 14:41:36 2017

Wall Time:        2.00 seconds


***********************************************************

Host: ADAM-PC

Timers On : Tue Mar 28 14:42:33 2017
Timers Off: Tue Mar 28 14:42:33 2017

Wall Time:        0.00 seconds


***********************************************************

Host: ADAM-PC

Timers On : Tue Mar 28 14:44:53 2017
Timers Off: Tue Mar 28 14:44:54 2017

Wall Time:        1.00 seconds


***********************************************************

Host: ADAM-PC

Timers On : Wed Apr 19 11:52:15 2017
Timers Off: Wed Apr 19 11:52:15 2017

Wall Time:        0.00 seconds


***********************************************************

Host: Adam-PC

Timers On : Fri Sep 15 15:14:25 2017
Timers Off: Fri Sep 15 15:14:26 2017

Wall Time:        1.00 seconds


***********************************************************
