
Host: ADAM-PC

Timers On : Wed Jan 11 14:49:59 2017
Timers Off: Wed Jan 11 14:49:59 2017

Wall Time:        0.00 seconds


***********************************************************
