
Host: ADAM-PC

Timers On : Tue Jun 20 20:41:25 2017
Timers Off: Tue Jun 20 20:41:26 2017

Wall Time:        1.00 seconds


***********************************************************

Host: ADAM-PC

Timers On : Tue Jun 20 20:42:49 2017
Timers Off: Tue Jun 20 20:42:50 2017

Wall Time:        1.00 seconds


***********************************************************

Host: ADAM-PC

Timers On : Tue Jun 20 21:06:40 2017
Timers Off: Tue Jun 20 21:06:42 2017

Wall Time:        2.00 seconds


***********************************************************

Host: ADAM-PC

Timers On : Tue Jun 20 21:10:02 2017
Timers Off: Tue Jun 20 21:10:04 2017

Wall Time:        2.00 seconds


***********************************************************
