
Host: Adam-PC

Timers On : Thu Sep 14 19:55:06 2017
Timers Off: Thu Sep 14 19:55:06 2017

Wall Time:        0.00 seconds


***********************************************************
