
Host: ADAM-PC

Timers On : Tue Jun 20 19:41:02 2017
Timers Off: Tue Jun 20 19:41:03 2017

Wall Time:        1.00 seconds


***********************************************************

Host: ADAM-PC

Timers On : Tue Jun 20 19:41:13 2017
Timers Off: Tue Jun 20 19:41:14 2017

Wall Time:        1.00 seconds


***********************************************************

Host: ADAM-PC

Timers On : Tue Jun 20 19:42:03 2017
Timers Off: Tue Jun 20 19:42:04 2017

Wall Time:        1.00 seconds


***********************************************************

Host: ADAM-PC

Timers On : Tue Jun 20 19:42:45 2017
Timers Off: Tue Jun 20 19:42:47 2017

Wall Time:        2.00 seconds


***********************************************************

Host: ADAM-PC

Timers On : Tue Jun 20 19:43:29 2017
Timers Off: Tue Jun 20 19:43:31 2017

Wall Time:        2.00 seconds


***********************************************************

Host: ADAM-PC

Timers On : Tue Jun 20 19:47:47 2017
Timers Off: Tue Jun 20 19:47:51 2017

Wall Time:        4.00 seconds


***********************************************************

Host: ADAM-PC

Timers On : Tue Jun 20 19:48:39 2017
Timers Off: Tue Jun 20 19:48:43 2017

Wall Time:        4.00 seconds


***********************************************************

Host: ADAM-PC

Timers On : Tue Jun 20 19:50:35 2017
Timers Off: Tue Jun 20 19:50:40 2017

Wall Time:        5.00 seconds


***********************************************************

Host: ADAM-PC

Timers On : Tue Jun 20 19:56:19 2017
Timers Off: Tue Jun 20 19:56:23 2017

Wall Time:        4.00 seconds


***********************************************************

Host: ADAM-PC

Timers On : Tue Jun 20 20:00:21 2017
Timers Off: Tue Jun 20 20:00:25 2017

Wall Time:        4.00 seconds


***********************************************************

Host: ADAM-PC

Timers On : Tue Jun 20 20:00:57 2017
Timers Off: Tue Jun 20 20:01:16 2017

Wall Time:       19.00 seconds

Total PK formation time:       0.24u       0.08s 0.35250800w      1 call
HF: Form H  :       0.08u       0.00s 0.01400300w      1 call
HF: Form S/X:       0.11u       0.02s 0.01601100w      1 call
HF: Guess   :       0.07u       0.00s 0.02602400w      1 call
HF: Form G  :       0.56u       0.05s   0.063038w      8 calls
JK: D       :       0.00u       0.00s   0.000000w      8 calls
JK: USO2AO  :       0.00u       0.00s   0.000000w      8 calls
JK: JK      :       0.00u       0.00s   0.000000w      8 calls
PK computes JK:       0.00u       0.00s   0.000000w      8 calls
JK: AO2USO  :       0.00u       0.00s   0.000000w      8 calls
HF: Form F  :       0.68u       0.09s   0.102569w      8 calls
HF: DIIS    :       0.22u       0.02s   0.037529w      8 calls
DIISManager::add_entry:       0.00u       0.00s   0.006003w      8 calls
HF: Form C  :       0.00u       0.00s   0.007006w      8 calls
HF: Form D  :       0.32u       0.03s   0.026014w      8 calls
DIISManager::extrapolate:       0.22u       0.02s   0.030527w      7 calls
DIISManager::extrapolate: bMatrix setup:       0.00u       0.00s   0.002004w      7 calls
DIISManager::extrapolate: bMatrix pseudoinverse:       0.22u       0.02s   0.028523w      7 calls
DIISManager::extrapolate: form new data:       0.00u       0.00s   0.000000w      7 calls

***********************************************************

Host: ADAM-PC

Timers On : Tue Jun 20 20:06:31 2017
Timers Off: Tue Jun 20 20:06:35 2017

Wall Time:        4.00 seconds


***********************************************************

Host: ADAM-PC

Timers On : Tue Jun 20 20:11:37 2017
Timers Off: Tue Jun 20 20:11:41 2017

Wall Time:        4.00 seconds


***********************************************************

Host: ADAM-PC

Timers On : Tue Jun 20 20:12:49 2017
Timers Off: Tue Jun 20 20:12:54 2017

Wall Time:        5.00 seconds


***********************************************************

Host: ADAM-PC

Timers On : Tue Jun 20 20:15:42 2017
Timers Off: Tue Jun 20 20:15:43 2017

Wall Time:        1.00 seconds


***********************************************************

Host: ADAM-PC

Timers On : Tue Jun 20 20:16:38 2017
Timers Off: Tue Jun 20 20:16:40 2017

Wall Time:        2.00 seconds


***********************************************************

Host: ADAM-PC

Timers On : Tue Jun 20 20:19:14 2017
Timers Off: Tue Jun 20 20:19:15 2017

Wall Time:        1.00 seconds


***********************************************************

Host: ADAM-PC

Timers On : Tue Jun 20 20:19:50 2017
Timers Off: Tue Jun 20 20:19:51 2017

Wall Time:        1.00 seconds


***********************************************************

Host: ADAM-PC

Timers On : Tue Jun 20 20:28:53 2017
Timers Off: Tue Jun 20 20:28:55 2017

Wall Time:        2.00 seconds


***********************************************************

Host: ADAM-PC

Timers On : Tue Jun 20 20:42:02 2017
Timers Off: Tue Jun 20 20:42:04 2017

Wall Time:        2.00 seconds


***********************************************************

Host: ADAM-PC

Timers On : Tue Jun 20 20:42:23 2017
Timers Off: Tue Jun 20 20:42:24 2017

Wall Time:        1.00 seconds


***********************************************************

Host: ADAM-PC

Timers On : Tue Jun 20 20:44:10 2017
Timers Off: Tue Jun 20 20:44:11 2017

Wall Time:        1.00 seconds


***********************************************************

Host: ADAM-PC

Timers On : Tue Jun 20 20:45:18 2017
Timers Off: Tue Jun 20 20:45:20 2017

Wall Time:        2.00 seconds


***********************************************************

Host: ADAM-PC

Timers On : Tue Jun 20 20:46:37 2017
Timers Off: Tue Jun 20 20:46:38 2017

Wall Time:        1.00 seconds


***********************************************************

Host: ADAM-PC

Timers On : Tue Jun 20 20:47:03 2017
Timers Off: Tue Jun 20 20:47:05 2017

Wall Time:        2.00 seconds


***********************************************************

Host: ADAM-PC

Timers On : Tue Jun 20 20:47:46 2017
Timers Off: Tue Jun 20 20:47:47 2017

Wall Time:        1.00 seconds


***********************************************************

Host: ADAM-PC

Timers On : Tue Jun 20 20:48:18 2017
Timers Off: Tue Jun 20 20:48:20 2017

Wall Time:        2.00 seconds


***********************************************************

Host: ADAM-PC

Timers On : Tue Jun 20 20:48:55 2017
Timers Off: Tue Jun 20 20:48:57 2017

Wall Time:        2.00 seconds


***********************************************************

Host: ADAM-PC

Timers On : Tue Jun 20 20:50:44 2017
Timers Off: Tue Jun 20 20:50:45 2017

Wall Time:        1.00 seconds


***********************************************************

Host: ADAM-PC

Timers On : Tue Jun 20 20:50:59 2017
Timers Off: Tue Jun 20 20:51:01 2017

Wall Time:        2.00 seconds


***********************************************************

Host: ADAM-PC

Timers On : Tue Jun 20 20:54:54 2017
Timers Off: Tue Jun 20 20:54:56 2017

Wall Time:        2.00 seconds


***********************************************************

Host: ADAM-PC

Timers On : Tue Jun 20 20:55:10 2017
Timers Off: Tue Jun 20 20:55:11 2017

Wall Time:        1.00 seconds


***********************************************************

Host: ADAM-PC

Timers On : Tue Jun 20 20:55:41 2017
Timers Off: Tue Jun 20 20:55:42 2017

Wall Time:        1.00 seconds


***********************************************************

Host: ADAM-PC

Timers On : Tue Jun 20 20:56:25 2017
Timers Off: Tue Jun 20 20:56:27 2017

Wall Time:        2.00 seconds


***********************************************************

Host: ADAM-PC

Timers On : Tue Jun 20 20:58:15 2017
Timers Off: Tue Jun 20 20:58:16 2017

Wall Time:        1.00 seconds


***********************************************************

Host: ADAM-PC

Timers On : Tue Jun 20 20:59:01 2017
Timers Off: Tue Jun 20 20:59:02 2017

Wall Time:        1.00 seconds


***********************************************************

Host: ADAM-PC

Timers On : Tue Jun 20 21:06:25 2017
Timers Off: Tue Jun 20 21:06:27 2017

Wall Time:        2.00 seconds


***********************************************************

Host: ADAM-PC

Timers On : Tue Jun 20 21:10:17 2017
Timers Off: Tue Jun 20 21:10:18 2017

Wall Time:        1.00 seconds


***********************************************************

Host: ADAM-PC

Timers On : Tue Jun 20 21:11:29 2017
Timers Off: Tue Jun 20 21:11:31 2017

Wall Time:        2.00 seconds


***********************************************************

Host: ADAM-PC

Timers On : Tue Jun 20 21:11:42 2017
Timers Off: Tue Jun 20 21:11:44 2017

Wall Time:        2.00 seconds


***********************************************************

Host: ADAM-PC

Timers On : Tue Jun 20 21:12:17 2017
Timers Off: Tue Jun 20 21:12:19 2017

Wall Time:        2.00 seconds


***********************************************************

Host: ADAM-PC

Timers On : Tue Jun 20 21:14:49 2017
Timers Off: Tue Jun 20 21:14:50 2017

Wall Time:        1.00 seconds


***********************************************************

Host: ADAM-PC

Timers On : Tue Jun 20 21:14:57 2017
Timers Off: Tue Jun 20 21:14:58 2017

Wall Time:        1.00 seconds


***********************************************************

Host: ADAM-PC

Timers On : Tue Jun 20 21:23:34 2017
Timers Off: Tue Jun 20 21:23:36 2017

Wall Time:        2.00 seconds


***********************************************************

Host: ADAM-PC

Timers On : Tue Jun 20 21:26:06 2017
Timers Off: Tue Jun 20 21:26:07 2017

Wall Time:        1.00 seconds


***********************************************************

Host: ADAM-PC

Timers On : Tue Jun 20 21:27:12 2017
Timers Off: Tue Jun 20 21:27:14 2017

Wall Time:        2.00 seconds


***********************************************************

Host: ADAM-PC

Timers On : Tue Jun 20 21:28:19 2017
Timers Off: Tue Jun 20 21:28:21 2017

Wall Time:        2.00 seconds


***********************************************************

Host: ADAM-PC

Timers On : Wed Jun 21 09:11:08 2017
Timers Off: Wed Jun 21 09:11:09 2017

Wall Time:        1.00 seconds


***********************************************************

Host: ADAM-PC

Timers On : Wed Jun 21 09:11:54 2017
Timers Off: Wed Jun 21 09:11:55 2017

Wall Time:        1.00 seconds


***********************************************************

Host: ADAM-PC

Timers On : Wed Jun 21 09:15:50 2017
Timers Off: Wed Jun 21 09:15:51 2017

Wall Time:        1.00 seconds


***********************************************************

Host: ADAM-PC

Timers On : Wed Jun 21 09:17:56 2017
Timers Off: Wed Jun 21 09:17:57 2017

Wall Time:        1.00 seconds


***********************************************************

Host: ADAM-PC

Timers On : Wed Jun 21 09:18:58 2017
Timers Off: Wed Jun 21 09:18:59 2017

Wall Time:        1.00 seconds


***********************************************************

Host: ADAM-PC

Timers On : Wed Jun 21 09:22:36 2017
Timers Off: Wed Jun 21 09:22:37 2017

Wall Time:        1.00 seconds


***********************************************************

Host: ADAM-PC

Timers On : Wed Jun 21 09:22:56 2017
Timers Off: Wed Jun 21 09:22:57 2017

Wall Time:        1.00 seconds


***********************************************************

Host: ADAM-PC

Timers On : Wed Jun 21 09:24:53 2017
Timers Off: Wed Jun 21 09:24:54 2017

Wall Time:        1.00 seconds


***********************************************************

Host: ADAM-PC

Timers On : Wed Jun 21 09:27:27 2017
Timers Off: Wed Jun 21 09:27:28 2017

Wall Time:        1.00 seconds


***********************************************************

Host: ADAM-PC

Timers On : Wed Jun 21 09:27:51 2017
Timers Off: Wed Jun 21 09:27:52 2017

Wall Time:        1.00 seconds


***********************************************************

Host: ADAM-PC

Timers On : Wed Jun 21 09:28:31 2017
Timers Off: Wed Jun 21 09:28:31 2017

Wall Time:        0.00 seconds


***********************************************************

Host: ADAM-PC

Timers On : Wed Jun 21 09:29:27 2017
Timers Off: Wed Jun 21 09:29:28 2017

Wall Time:        1.00 seconds


***********************************************************

Host: ADAM-PC

Timers On : Wed Jun 21 09:31:37 2017
Timers Off: Wed Jun 21 09:31:38 2017

Wall Time:        1.00 seconds


***********************************************************

Host: ADAM-PC

Timers On : Wed Jun 21 09:32:17 2017
Timers Off: Wed Jun 21 09:32:18 2017

Wall Time:        1.00 seconds


***********************************************************

Host: ADAM-PC

Timers On : Wed Jun 21 09:32:30 2017
Timers Off: Wed Jun 21 09:32:31 2017

Wall Time:        1.00 seconds


***********************************************************

Host: ADAM-PC

Timers On : Wed Jun 21 09:32:53 2017
Timers Off: Wed Jun 21 09:32:54 2017

Wall Time:        1.00 seconds


***********************************************************

Host: ADAM-PC

Timers On : Wed Jun 21 09:34:46 2017
Timers Off: Wed Jun 21 09:34:47 2017

Wall Time:        1.00 seconds


***********************************************************

Host: ADAM-PC

Timers On : Wed Jun 21 09:35:02 2017
Timers Off: Wed Jun 21 09:35:03 2017

Wall Time:        1.00 seconds


***********************************************************

Host: ADAM-PC

Timers On : Wed Jun 21 09:44:07 2017
Timers Off: Wed Jun 21 09:44:08 2017

Wall Time:        1.00 seconds


***********************************************************

Host: ADAM-PC

Timers On : Wed Jun 21 09:45:03 2017
Timers Off: Wed Jun 21 09:45:04 2017

Wall Time:        1.00 seconds


***********************************************************

Host: ADAM-PC

Timers On : Wed Jun 21 09:51:08 2017
Timers Off: Wed Jun 21 09:51:08 2017

Wall Time:        0.00 seconds


***********************************************************

Host: ADAM-PC

Timers On : Wed Jun 21 09:51:33 2017
Timers Off: Wed Jun 21 09:51:34 2017

Wall Time:        1.00 seconds


***********************************************************

Host: ADAM-PC

Timers On : Wed Jun 21 09:51:44 2017
Timers Off: Wed Jun 21 09:51:45 2017

Wall Time:        1.00 seconds


***********************************************************

Host: ADAM-PC

Timers On : Wed Jun 21 09:52:12 2017
Timers Off: Wed Jun 21 09:52:13 2017

Wall Time:        1.00 seconds


***********************************************************

Host: ADAM-PC

Timers On : Wed Jun 21 09:53:13 2017
Timers Off: Wed Jun 21 09:53:15 2017

Wall Time:        2.00 seconds


***********************************************************

Host: ADAM-PC

Timers On : Wed Jun 21 09:53:28 2017
Timers Off: Wed Jun 21 09:53:29 2017

Wall Time:        1.00 seconds


***********************************************************

Host: ADAM-PC

Timers On : Wed Jun 21 09:53:51 2017
Timers Off: Wed Jun 21 09:53:52 2017

Wall Time:        1.00 seconds


***********************************************************

Host: ADAM-PC

Timers On : Wed Jun 21 09:54:12 2017
Timers Off: Wed Jun 21 09:54:14 2017

Wall Time:        2.00 seconds


***********************************************************

Host: ADAM-PC

Timers On : Wed Jun 21 10:50:48 2017
Timers Off: Wed Jun 21 10:50:49 2017

Wall Time:        1.00 seconds


***********************************************************

Host: ADAM-PC

Timers On : Wed Jun 21 11:14:57 2017
Timers Off: Wed Jun 21 11:14:58 2017

Wall Time:        1.00 seconds


***********************************************************

Host: ADAM-PC

Timers On : Wed Jun 21 11:15:34 2017
Timers Off: Wed Jun 21 11:15:35 2017

Wall Time:        1.00 seconds


***********************************************************
