
Host: ADAM-PC

Timers On : Tue Jun 13 12:50:23 2017
Timers Off: Tue Jun 13 12:50:24 2017

Wall Time:        1.00 seconds


***********************************************************

Host: ADAM-PC

Timers On : Tue Jun 13 12:50:38 2017
Timers Off: Tue Jun 13 12:50:40 2017

Wall Time:        2.00 seconds


***********************************************************

Host: ADAM-PC

Timers On : Tue Jun 13 12:51:25 2017
Timers Off: Tue Jun 13 12:51:26 2017

Wall Time:        1.00 seconds


***********************************************************

Host: ADAM-PC

Timers On : Tue Jun 13 12:56:16 2017
Timers Off: Tue Jun 13 12:56:18 2017

Wall Time:        2.00 seconds


***********************************************************

Host: ADAM-PC

Timers On : Tue Jun 13 13:01:35 2017
Timers Off: Tue Jun 13 13:01:37 2017

Wall Time:        2.00 seconds


***********************************************************

Host: ADAM-PC

Timers On : Tue Jun 13 13:02:45 2017
Timers Off: Tue Jun 13 13:02:46 2017

Wall Time:        1.00 seconds


***********************************************************

Host: ADAM-PC

Timers On : Wed Jun 14 18:52:32 2017
Timers Off: Wed Jun 14 18:52:34 2017

Wall Time:        2.00 seconds


***********************************************************
