
Host: ADAM-PC

Timers On : Wed Jun 21 18:06:56 2017
Timers Off: Wed Jun 21 18:06:57 2017

Wall Time:        1.00 seconds


***********************************************************

Host: ADAM-PC

Timers On : Wed Jun 21 18:07:03 2017
Timers Off: Wed Jun 21 18:07:04 2017

Wall Time:        1.00 seconds


***********************************************************
