
Host: ADAM-PC

Timers On : Tue Feb 21 21:59:15 2017
Timers Off: Tue Feb 21 21:59:15 2017

Wall Time:        0.00 seconds


***********************************************************

Host: ADAM-PC

Timers On : Tue Feb 21 22:07:20 2017
Timers Off: Tue Feb 21 22:07:21 2017

Wall Time:        1.00 seconds


***********************************************************

Host: ADAM-PC

Timers On : Tue Feb 21 22:09:10 2017
Timers Off: Tue Feb 21 22:09:11 2017

Wall Time:        1.00 seconds


***********************************************************

Host: ADAM-PC

Timers On : Tue Feb 21 22:09:55 2017
Timers Off: Tue Feb 21 22:09:56 2017

Wall Time:        1.00 seconds


***********************************************************

Host: ADAM-PC

Timers On : Tue Feb 21 22:11:18 2017
Timers Off: Tue Feb 21 22:11:19 2017

Wall Time:        1.00 seconds


***********************************************************

Host: ADAM-PC

Timers On : Tue Feb 21 22:14:13 2017
Timers Off: Tue Feb 21 22:14:14 2017

Wall Time:        1.00 seconds


***********************************************************

Host: ADAM-PC

Timers On : Tue Feb 21 22:14:33 2017
Timers Off: Tue Feb 21 22:14:34 2017

Wall Time:        1.00 seconds


***********************************************************

Host: ADAM-PC

Timers On : Tue Feb 21 22:35:51 2017
Timers Off: Tue Feb 21 22:35:52 2017

Wall Time:        1.00 seconds


***********************************************************

Host: ADAM-PC

Timers On : Tue Feb 21 22:37:29 2017
Timers Off: Tue Feb 21 22:37:29 2017

Wall Time:        0.00 seconds


***********************************************************

Host: ADAM-PC

Timers On : Tue Feb 21 22:38:18 2017
Timers Off: Tue Feb 21 22:38:19 2017

Wall Time:        1.00 seconds


***********************************************************

Host: ADAM-PC

Timers On : Tue Feb 21 22:39:46 2017
Timers Off: Tue Feb 21 22:39:47 2017

Wall Time:        1.00 seconds


***********************************************************

Host: ADAM-PC

Timers On : Tue Feb 21 22:40:47 2017
Timers Off: Tue Feb 21 22:40:50 2017

Wall Time:        3.00 seconds


***********************************************************

Host: ADAM-PC

Timers On : Tue Feb 21 22:42:34 2017
Timers Off: Tue Feb 21 22:42:37 2017

Wall Time:        3.00 seconds


***********************************************************

Host: ADAM-PC

Timers On : Mon Feb 27 16:04:23 2017
Timers Off: Mon Feb 27 16:04:26 2017

Wall Time:        3.00 seconds


***********************************************************

Host: ADAM-PC

Timers On : Mon Feb 27 16:04:55 2017
Timers Off: Mon Feb 27 16:04:58 2017

Wall Time:        3.00 seconds


***********************************************************

Host: ADAM-PC

Timers On : Mon Feb 27 16:06:12 2017
Timers Off: Mon Feb 27 16:06:15 2017

Wall Time:        3.00 seconds


***********************************************************

Host: ADAM-PC

Timers On : Tue Feb 28 14:27:03 2017
Timers Off: Tue Feb 28 14:27:11 2017

Wall Time:        8.00 seconds


***********************************************************

Host: ADAM-PC

Timers On : Tue Feb 28 14:27:32 2017
Timers Off: Tue Feb 28 14:27:34 2017

Wall Time:        2.00 seconds


***********************************************************

Host: ADAM-PC

Timers On : Tue Feb 28 14:28:06 2017
Timers Off: Tue Feb 28 14:28:08 2017

Wall Time:        2.00 seconds


***********************************************************

Host: ADAM-PC

Timers On : Tue Feb 28 14:29:26 2017
Timers Off: Tue Feb 28 14:29:28 2017

Wall Time:        2.00 seconds


***********************************************************

Host: ADAM-PC

Timers On : Tue Feb 28 14:30:39 2017
Timers Off: Tue Feb 28 14:30:41 2017

Wall Time:        2.00 seconds


***********************************************************

Host: ADAM-PC

Timers On : Tue Feb 28 14:31:26 2017
Timers Off: Tue Feb 28 14:31:28 2017

Wall Time:        2.00 seconds


***********************************************************

Host: ADAM-PC

Timers On : Tue Feb 28 14:49:06 2017
Timers Off: Tue Feb 28 14:49:10 2017

Wall Time:        4.00 seconds


***********************************************************
