
Host: Adam-PC

Timers On : Fri Sep 15 15:01:35 2017
Timers Off: Fri Sep 15 15:01:35 2017

Wall Time:        0.00 seconds


***********************************************************

Host: Adam-PC

Timers On : Fri Sep 15 15:01:42 2017
Timers Off: Fri Sep 15 15:01:43 2017

Wall Time:        1.00 seconds


***********************************************************
