
Host: ADAM-PC

Timers On : Thu Apr 13 17:57:45 2017
Timers Off: Thu Apr 13 17:57:46 2017

Wall Time:        1.00 seconds


***********************************************************

Host: ADAM-PC

Timers On : Thu Apr 13 18:15:16 2017
Timers Off: Thu Apr 13 18:15:17 2017

Wall Time:        1.00 seconds


***********************************************************
