
Host: ADAM-PC

Timers On : Wed Apr 19 11:46:05 2017
Timers Off: Wed Apr 19 11:46:06 2017

Wall Time:        1.00 seconds


***********************************************************

Host: ADAM-PC

Timers On : Wed Apr 19 11:49:27 2017
Timers Off: Wed Apr 19 11:49:28 2017

Wall Time:        1.00 seconds


***********************************************************

Host: ADAM-PC

Timers On : Wed Apr 19 11:50:52 2017
Timers Off: Wed Apr 19 11:50:53 2017

Wall Time:        1.00 seconds


***********************************************************

Host: ADAM-PC

Timers On : Wed Apr 19 11:51:08 2017
Timers Off: Wed Apr 19 11:51:08 2017

Wall Time:        0.00 seconds


***********************************************************

Host: ADAM-PC

Timers On : Wed Apr 19 11:51:51 2017
Timers Off: Wed Apr 19 11:51:52 2017

Wall Time:        1.00 seconds


***********************************************************

Host: ADAM-PC

Timers On : Wed Apr 19 11:57:25 2017
Timers Off: Wed Apr 19 11:57:26 2017

Wall Time:        1.00 seconds


***********************************************************

Host: ADAM-PC

Timers On : Wed Apr 19 12:03:46 2017
Timers Off: Wed Apr 19 12:03:48 2017

Wall Time:        2.00 seconds


***********************************************************

Host: ADAM-PC

Timers On : Wed Apr 19 16:28:13 2017
Timers Off: Wed Apr 19 16:28:13 2017

Wall Time:        0.00 seconds


***********************************************************

Host: ADAM-PC

Timers On : Wed Apr 19 16:28:48 2017
Timers Off: Wed Apr 19 16:28:49 2017

Wall Time:        1.00 seconds


***********************************************************
