
Host: ADAM-PC

Timers On : Sat Jan 28 15:43:42 2017
Timers Off: Sat Jan 28 15:43:43 2017

Wall Time:        1.00 seconds


***********************************************************

Host: ADAM-PC

Timers On : Sat Jan 28 16:04:01 2017
Timers Off: Sat Jan 28 16:04:01 2017

Wall Time:        0.00 seconds


***********************************************************

Host: ADAM-PC

Timers On : Sat Jan 28 16:07:44 2017
Timers Off: Sat Jan 28 16:07:44 2017

Wall Time:        0.00 seconds


***********************************************************

Host: ADAM-PC

Timers On : Sat Jan 28 16:08:46 2017
Timers Off: Sat Jan 28 16:08:47 2017

Wall Time:        1.00 seconds


***********************************************************

Host: ADAM-PC

Timers On : Sat Jan 28 16:12:23 2017
Timers Off: Sat Jan 28 16:12:47 2017

Wall Time:       24.00 seconds


***********************************************************

Host: ADAM-PC

Timers On : Sat Jan 28 16:12:52 2017
Timers Off: Sat Jan 28 16:13:10 2017

Wall Time:       18.00 seconds


***********************************************************

Host: ADAM-PC

Timers On : Sat Jan 28 16:13:42 2017
Timers Off: Sat Jan 28 16:17:49 2017

Wall Time:      247.00 seconds


***********************************************************

Host: ADAM-PC

Timers On : Sat Jan 28 16:19:25 2017
Timers Off: Sat Jan 28 16:19:25 2017

Wall Time:        0.00 seconds


***********************************************************

Host: ADAM-PC

Timers On : Sat Jan 28 16:29:24 2017
Timers Off: Sat Jan 28 16:29:34 2017

Wall Time:       10.00 seconds


***********************************************************

Host: ADAM-PC

Timers On : Sat Jan 28 16:29:58 2017
Timers Off: Sat Jan 28 16:29:59 2017

Wall Time:        1.00 seconds


***********************************************************

Host: ADAM-PC

Timers On : Sat Jan 28 16:33:00 2017
Timers Off: Sat Jan 28 16:33:01 2017

Wall Time:        1.00 seconds


***********************************************************

Host: ADAM-PC

Timers On : Sat Jan 28 16:34:53 2017
Timers Off: Sat Jan 28 16:35:16 2017

Wall Time:       23.00 seconds


***********************************************************

Host: ADAM-PC

Timers On : Sat Jan 28 16:51:26 2017
Timers Off: Sat Jan 28 16:51:27 2017

Wall Time:        1.00 seconds


***********************************************************

Host: ADAM-PC

Timers On : Sat Jan 28 17:02:23 2017
Timers Off: Sat Jan 28 17:02:23 2017

Wall Time:        0.00 seconds


***********************************************************

Host: ADAM-PC

Timers On : Sat Jan 28 17:03:03 2017
Timers Off: Sat Jan 28 17:03:04 2017

Wall Time:        1.00 seconds


***********************************************************

Host: ADAM-PC

Timers On : Sat Jan 28 17:04:07 2017
Timers Off: Sat Jan 28 17:04:07 2017

Wall Time:        0.00 seconds


***********************************************************

Host: ADAM-PC

Timers On : Sat Jan 28 17:16:01 2017
Timers Off: Sat Jan 28 17:16:01 2017

Wall Time:        0.00 seconds


***********************************************************

Host: ADAM-PC

Timers On : Sat Jan 28 17:17:04 2017
Timers Off: Sat Jan 28 17:17:04 2017

Wall Time:        0.00 seconds


***********************************************************

Host: ADAM-PC

Timers On : Sat Jan 28 17:18:27 2017
Timers Off: Sat Jan 28 17:18:27 2017

Wall Time:        0.00 seconds


***********************************************************

Host: ADAM-PC

Timers On : Sat Jan 28 17:20:38 2017
Timers Off: Sat Jan 28 17:20:38 2017

Wall Time:        0.00 seconds


***********************************************************

Host: ADAM-PC

Timers On : Sat Jan 28 17:21:15 2017
Timers Off: Sat Jan 28 17:21:15 2017

Wall Time:        0.00 seconds


***********************************************************

Host: ADAM-PC

Timers On : Sat Jan 28 17:21:51 2017
Timers Off: Sat Jan 28 17:21:52 2017

Wall Time:        1.00 seconds


***********************************************************

Host: ADAM-PC

Timers On : Sat Jan 28 17:22:10 2017
Timers Off: Sat Jan 28 17:22:10 2017

Wall Time:        0.00 seconds


***********************************************************

Host: ADAM-PC

Timers On : Sat Jan 28 17:23:04 2017
Timers Off: Sat Jan 28 17:23:04 2017

Wall Time:        0.00 seconds


***********************************************************

Host: ADAM-PC

Timers On : Sat Jan 28 17:23:25 2017
Timers Off: Sat Jan 28 17:23:25 2017

Wall Time:        0.00 seconds


***********************************************************

Host: ADAM-PC

Timers On : Sat Jan 28 17:24:36 2017
Timers Off: Sat Jan 28 17:24:36 2017

Wall Time:        0.00 seconds


***********************************************************

Host: ADAM-PC

Timers On : Sat Jan 28 17:25:10 2017
Timers Off: Sat Jan 28 17:25:11 2017

Wall Time:        1.00 seconds


***********************************************************

Host: ADAM-PC

Timers On : Sat Jan 28 17:25:29 2017
Timers Off: Sat Jan 28 17:25:29 2017

Wall Time:        0.00 seconds


***********************************************************

Host: ADAM-PC

Timers On : Sat Jan 28 17:25:58 2017
Timers Off: Sat Jan 28 17:25:59 2017

Wall Time:        1.00 seconds


***********************************************************

Host: ADAM-PC

Timers On : Sat Jan 28 17:37:30 2017
Timers Off: Sat Jan 28 17:37:30 2017

Wall Time:        0.00 seconds


***********************************************************

Host: ADAM-PC

Timers On : Sat Jan 28 17:38:09 2017
Timers Off: Sat Jan 28 17:38:10 2017

Wall Time:        1.00 seconds


***********************************************************

Host: ADAM-PC

Timers On : Sat Jan 28 18:07:15 2017
Timers Off: Sat Jan 28 18:07:16 2017

Wall Time:        1.00 seconds


***********************************************************

Host: ADAM-PC

Timers On : Sat Jan 28 18:10:23 2017
Timers Off: Sat Jan 28 18:10:23 2017

Wall Time:        0.00 seconds


***********************************************************

Host: ADAM-PC

Timers On : Sat Jan 28 18:11:21 2017
Timers Off: Sat Jan 28 18:11:22 2017

Wall Time:        1.00 seconds


***********************************************************

Host: ADAM-PC

Timers On : Sat Jan 28 18:12:31 2017
Timers Off: Sat Jan 28 18:12:32 2017

Wall Time:        1.00 seconds


***********************************************************

Host: ADAM-PC

Timers On : Mon Jan 30 18:09:48 2017
Timers Off: Mon Jan 30 18:09:49 2017

Wall Time:        1.00 seconds


***********************************************************

Host: ADAM-PC

Timers On : Mon Jan 30 18:19:38 2017
Timers Off: Mon Jan 30 18:19:39 2017

Wall Time:        1.00 seconds


***********************************************************

Host: ADAM-PC

Timers On : Mon Jan 30 18:38:06 2017
Timers Off: Mon Jan 30 18:38:07 2017

Wall Time:        1.00 seconds


***********************************************************

Host: ADAM-PC

Timers On : Tue Jan 31 04:10:13 2017
Timers Off: Tue Jan 31 04:12:53 2017

Wall Time:      160.00 seconds


***********************************************************

Host: ADAM-PC

Timers On : Tue Jan 31 04:13:57 2017
Timers Off: Tue Jan 31 04:13:58 2017

Wall Time:        1.00 seconds


***********************************************************

Host: ADAM-PC

Timers On : Tue Jan 31 04:16:52 2017
Timers Off: Tue Jan 31 04:16:52 2017

Wall Time:        0.00 seconds


***********************************************************

Host: ADAM-PC

Timers On : Tue Jan 31 04:20:56 2017
Timers Off: Tue Jan 31 04:20:56 2017

Wall Time:        0.00 seconds


***********************************************************

Host: ADAM-PC

Timers On : Tue Jan 31 04:22:18 2017
Timers Off: Tue Jan 31 04:22:18 2017

Wall Time:        0.00 seconds


***********************************************************

Host: ADAM-PC

Timers On : Tue Jan 31 04:23:40 2017
Timers Off: Tue Jan 31 04:23:40 2017

Wall Time:        0.00 seconds


***********************************************************

Host: ADAM-PC

Timers On : Tue Jan 31 04:24:50 2017
Timers Off: Tue Jan 31 04:24:51 2017

Wall Time:        1.00 seconds


***********************************************************

Host: ADAM-PC

Timers On : Tue Jan 31 08:10:18 2017
Timers Off: Tue Jan 31 08:10:19 2017

Wall Time:        1.00 seconds


***********************************************************

Host: ADAM-PC

Timers On : Tue Jan 31 08:15:34 2017
Timers Off: Tue Jan 31 08:15:35 2017

Wall Time:        1.00 seconds


***********************************************************

Host: ADAM-PC

Timers On : Tue Jan 31 08:17:00 2017
Timers Off: Tue Jan 31 08:17:00 2017

Wall Time:        0.00 seconds


***********************************************************

Host: ADAM-PC

Timers On : Tue Jan 31 08:19:12 2017
Timers Off: Tue Jan 31 08:19:12 2017

Wall Time:        0.00 seconds


***********************************************************

Host: ADAM-PC

Timers On : Tue Jan 31 08:27:11 2017
Timers Off: Tue Jan 31 08:27:11 2017

Wall Time:        0.00 seconds


***********************************************************

Host: ADAM-PC

Timers On : Tue Jan 31 08:53:28 2017
Timers Off: Tue Jan 31 08:53:28 2017

Wall Time:        0.00 seconds


***********************************************************

Host: ADAM-PC

Timers On : Tue Jan 31 08:55:05 2017
Timers Off: Tue Jan 31 08:55:05 2017

Wall Time:        0.00 seconds


***********************************************************

Host: ADAM-PC

Timers On : Tue Jan 31 08:57:18 2017
Timers Off: Tue Jan 31 08:57:18 2017

Wall Time:        0.00 seconds


***********************************************************

Host: ADAM-PC

Timers On : Tue Jan 31 08:57:37 2017
Timers Off: Tue Jan 31 08:57:37 2017

Wall Time:        0.00 seconds


***********************************************************

Host: ADAM-PC

Timers On : Tue Jan 31 08:58:01 2017
Timers Off: Tue Jan 31 08:58:01 2017

Wall Time:        0.00 seconds


***********************************************************

Host: ADAM-PC

Timers On : Tue Jan 31 10:07:19 2017
Timers Off: Tue Jan 31 10:07:19 2017

Wall Time:        0.00 seconds


***********************************************************

Host: ADAM-PC

Timers On : Tue Jan 31 10:08:25 2017
Timers Off: Tue Jan 31 10:08:26 2017

Wall Time:        1.00 seconds


***********************************************************

Host: ADAM-PC

Timers On : Tue Jan 31 10:22:56 2017
Timers Off: Tue Jan 31 10:22:58 2017

Wall Time:        2.00 seconds


***********************************************************

Host: ADAM-PC

Timers On : Tue Jan 31 14:47:43 2017
Timers Off: Tue Jan 31 14:47:44 2017

Wall Time:        1.00 seconds


***********************************************************

Host: ADAM-PC

Timers On : Tue Jan 31 18:25:05 2017
Timers Off: Tue Jan 31 18:25:06 2017

Wall Time:        1.00 seconds


***********************************************************

Host: ADAM-PC

Timers On : Tue Jan 31 18:26:59 2017
Timers Off: Tue Jan 31 18:27:00 2017

Wall Time:        1.00 seconds


***********************************************************

Host: ADAM-PC

Timers On : Tue Jan 31 18:29:56 2017
Timers Off: Tue Jan 31 18:29:57 2017

Wall Time:        1.00 seconds


***********************************************************

Host: ADAM-PC

Timers On : Tue Jan 31 18:33:07 2017
Timers Off: Tue Jan 31 18:33:08 2017

Wall Time:        1.00 seconds


***********************************************************

Host: ADAM-PC

Timers On : Tue Jan 31 18:34:09 2017
Timers Off: Tue Jan 31 18:34:10 2017

Wall Time:        1.00 seconds


***********************************************************

Host: ADAM-PC

Timers On : Tue Jan 31 18:36:32 2017
Timers Off: Tue Jan 31 18:36:33 2017

Wall Time:        1.00 seconds


***********************************************************

Host: ADAM-PC

Timers On : Tue Jan 31 18:37:07 2017
Timers Off: Tue Jan 31 18:37:08 2017

Wall Time:        1.00 seconds


***********************************************************

Host: ADAM-PC

Timers On : Tue Jan 31 18:37:40 2017
Timers Off: Tue Jan 31 18:37:41 2017

Wall Time:        1.00 seconds


***********************************************************

Host: ADAM-PC

Timers On : Tue Jan 31 18:38:46 2017
Timers Off: Tue Jan 31 18:38:47 2017

Wall Time:        1.00 seconds


***********************************************************

Host: ADAM-PC

Timers On : Tue Jan 31 18:45:57 2017
Timers Off: Tue Jan 31 18:45:58 2017

Wall Time:        1.00 seconds


***********************************************************

Host: ADAM-PC

Timers On : Tue Jan 31 18:46:16 2017
Timers Off: Tue Jan 31 18:46:17 2017

Wall Time:        1.00 seconds


***********************************************************

Host: ADAM-PC

Timers On : Tue Jan 31 18:47:10 2017
Timers Off: Tue Jan 31 18:47:11 2017

Wall Time:        1.00 seconds


***********************************************************

Host: ADAM-PC

Timers On : Tue Jan 31 18:52:58 2017
Timers Off: Tue Jan 31 18:52:59 2017

Wall Time:        1.00 seconds


***********************************************************

Host: ADAM-PC

Timers On : Tue Jan 31 19:02:43 2017
Timers Off: Tue Jan 31 19:02:44 2017

Wall Time:        1.00 seconds


***********************************************************

Host: ADAM-PC

Timers On : Tue Jan 31 19:04:44 2017
Timers Off: Tue Jan 31 19:04:45 2017

Wall Time:        1.00 seconds


***********************************************************

Host: ADAM-PC

Timers On : Tue Jan 31 19:05:44 2017
Timers Off: Tue Jan 31 19:05:45 2017

Wall Time:        1.00 seconds


***********************************************************

Host: ADAM-PC

Timers On : Tue Jan 31 19:08:04 2017
Timers Off: Tue Jan 31 19:08:05 2017

Wall Time:        1.00 seconds


***********************************************************

Host: ADAM-PC

Timers On : Tue Jan 31 19:10:09 2017
Timers Off: Tue Jan 31 19:10:10 2017

Wall Time:        1.00 seconds


***********************************************************

Host: ADAM-PC

Timers On : Tue Jan 31 19:10:29 2017
Timers Off: Tue Jan 31 19:10:30 2017

Wall Time:        1.00 seconds


***********************************************************

Host: ADAM-PC

Timers On : Tue Jan 31 19:13:01 2017
Timers Off: Tue Jan 31 19:13:02 2017

Wall Time:        1.00 seconds


***********************************************************

Host: ADAM-PC

Timers On : Tue Jan 31 19:14:39 2017
Timers Off: Tue Jan 31 19:14:40 2017

Wall Time:        1.00 seconds


***********************************************************

Host: ADAM-PC

Timers On : Tue Jan 31 19:14:55 2017
Timers Off: Tue Jan 31 19:14:56 2017

Wall Time:        1.00 seconds


***********************************************************

Host: ADAM-PC

Timers On : Tue Jan 31 19:15:22 2017
Timers Off: Tue Jan 31 19:15:23 2017

Wall Time:        1.00 seconds


***********************************************************

Host: ADAM-PC

Timers On : Tue Jan 31 19:17:59 2017
Timers Off: Tue Jan 31 19:18:00 2017

Wall Time:        1.00 seconds


***********************************************************

Host: ADAM-PC

Timers On : Tue Jan 31 19:18:16 2017
Timers Off: Tue Jan 31 19:18:17 2017

Wall Time:        1.00 seconds


***********************************************************

Host: ADAM-PC

Timers On : Tue Jan 31 19:18:35 2017
Timers Off: Tue Jan 31 19:18:36 2017

Wall Time:        1.00 seconds


***********************************************************

Host: ADAM-PC

Timers On : Tue Jan 31 19:18:52 2017
Timers Off: Tue Jan 31 19:18:53 2017

Wall Time:        1.00 seconds


***********************************************************

Host: ADAM-PC

Timers On : Tue Jan 31 19:19:29 2017
Timers Off: Tue Jan 31 19:19:30 2017

Wall Time:        1.00 seconds


***********************************************************

Host: ADAM-PC

Timers On : Tue Jan 31 19:22:20 2017
Timers Off: Tue Jan 31 19:22:21 2017

Wall Time:        1.00 seconds


***********************************************************

Host: ADAM-PC

Timers On : Tue Jan 31 19:23:50 2017
Timers Off: Tue Jan 31 19:23:51 2017

Wall Time:        1.00 seconds


***********************************************************

Host: ADAM-PC

Timers On : Tue Jan 31 19:24:20 2017
Timers Off: Tue Jan 31 19:24:21 2017

Wall Time:        1.00 seconds


***********************************************************

Host: ADAM-PC

Timers On : Tue Jan 31 19:27:32 2017
Timers Off: Tue Jan 31 19:27:33 2017

Wall Time:        1.00 seconds


***********************************************************

Host: ADAM-PC

Timers On : Tue Jan 31 19:28:00 2017
Timers Off: Tue Jan 31 19:28:01 2017

Wall Time:        1.00 seconds


***********************************************************

Host: ADAM-PC

Timers On : Wed Feb  1 10:02:36 2017
Timers Off: Wed Feb  1 10:02:36 2017

Wall Time:        0.00 seconds


***********************************************************

Host: ADAM-PC

Timers On : Wed Feb  1 10:03:07 2017
Timers Off: Wed Feb  1 10:03:07 2017

Wall Time:        0.00 seconds


***********************************************************

Host: ADAM-PC

Timers On : Wed Feb  1 10:24:08 2017
Timers Off: Wed Feb  1 10:24:10 2017

Wall Time:        2.00 seconds


***********************************************************

Host: ADAM-PC

Timers On : Wed Feb  1 10:24:56 2017
Timers Off: Wed Feb  1 10:24:57 2017

Wall Time:        1.00 seconds


***********************************************************

Host: ADAM-PC

Timers On : Wed Feb  1 10:25:19 2017
Timers Off: Wed Feb  1 10:25:21 2017

Wall Time:        2.00 seconds


***********************************************************

Host: ADAM-PC

Timers On : Wed Feb  1 10:28:09 2017
Timers Off: Wed Feb  1 10:28:10 2017

Wall Time:        1.00 seconds


***********************************************************

Host: ADAM-PC

Timers On : Wed Feb  1 10:35:51 2017
Timers Off: Wed Feb  1 10:35:52 2017

Wall Time:        1.00 seconds


***********************************************************

Host: ADAM-PC

Timers On : Wed Feb  1 10:38:18 2017
Timers Off: Wed Feb  1 10:38:20 2017

Wall Time:        2.00 seconds


***********************************************************

Host: ADAM-PC

Timers On : Wed Feb  1 10:38:53 2017
Timers Off: Wed Feb  1 10:38:54 2017

Wall Time:        1.00 seconds


***********************************************************

Host: ADAM-PC

Timers On : Wed Feb  1 10:40:16 2017
Timers Off: Wed Feb  1 10:40:17 2017

Wall Time:        1.00 seconds


***********************************************************

Host: ADAM-PC

Timers On : Wed Feb  1 10:42:19 2017
Timers Off: Wed Feb  1 10:42:20 2017

Wall Time:        1.00 seconds


***********************************************************

Host: ADAM-PC

Timers On : Wed Feb  1 10:45:28 2017
Timers Off: Wed Feb  1 10:45:30 2017

Wall Time:        2.00 seconds


***********************************************************

Host: ADAM-PC

Timers On : Wed Feb  1 10:48:26 2017
Timers Off: Wed Feb  1 10:48:27 2017

Wall Time:        1.00 seconds


***********************************************************

Host: ADAM-PC

Timers On : Wed Feb  1 10:51:02 2017
Timers Off: Wed Feb  1 10:51:03 2017

Wall Time:        1.00 seconds


***********************************************************

Host: ADAM-PC

Timers On : Wed Feb  1 11:01:40 2017
Timers Off: Wed Feb  1 11:01:41 2017

Wall Time:        1.00 seconds


***********************************************************

Host: ADAM-PC

Timers On : Wed Feb  1 11:02:04 2017
Timers Off: Wed Feb  1 11:02:05 2017

Wall Time:        1.00 seconds


***********************************************************

Host: ADAM-PC

Timers On : Wed Feb  1 11:03:32 2017
Timers Off: Wed Feb  1 11:03:33 2017

Wall Time:        1.00 seconds


***********************************************************

Host: ADAM-PC

Timers On : Wed Feb  1 11:05:14 2017
Timers Off: Wed Feb  1 11:05:15 2017

Wall Time:        1.00 seconds


***********************************************************

Host: ADAM-PC

Timers On : Wed Feb  1 11:11:23 2017
Timers Off: Wed Feb  1 11:11:24 2017

Wall Time:        1.00 seconds


***********************************************************

Host: ADAM-PC

Timers On : Wed Feb  1 11:11:48 2017
Timers Off: Wed Feb  1 11:11:49 2017

Wall Time:        1.00 seconds


***********************************************************

Host: ADAM-PC

Timers On : Wed Feb  1 12:39:52 2017
Timers Off: Wed Feb  1 12:39:53 2017

Wall Time:        1.00 seconds


***********************************************************

Host: ADAM-PC

Timers On : Wed Feb  1 13:26:12 2017
Timers Off: Wed Feb  1 13:26:14 2017

Wall Time:        2.00 seconds


***********************************************************

Host: ADAM-PC

Timers On : Wed Feb  1 14:54:52 2017
Timers Off: Wed Feb  1 14:54:53 2017

Wall Time:        1.00 seconds


***********************************************************

Host: ADAM-PC

Timers On : Wed Feb  1 14:55:25 2017
Timers Off: Wed Feb  1 14:55:26 2017

Wall Time:        1.00 seconds


***********************************************************

Host: ADAM-PC

Timers On : Wed Feb  1 15:02:10 2017
Timers Off: Wed Feb  1 15:02:11 2017

Wall Time:        1.00 seconds


***********************************************************

Host: ADAM-PC

Timers On : Wed Feb  1 15:47:49 2017
Timers Off: Wed Feb  1 15:47:51 2017

Wall Time:        2.00 seconds


***********************************************************

Host: ADAM-PC

Timers On : Wed Feb  1 16:02:56 2017
Timers Off: Wed Feb  1 16:02:56 2017

Wall Time:        0.00 seconds


***********************************************************

Host: ADAM-PC

Timers On : Wed Feb  1 16:04:00 2017
Timers Off: Wed Feb  1 16:04:01 2017

Wall Time:        1.00 seconds


***********************************************************

Host: ADAM-PC

Timers On : Wed Feb  1 16:06:35 2017
Timers Off: Wed Feb  1 16:06:36 2017

Wall Time:        1.00 seconds


***********************************************************

Host: ADAM-PC

Timers On : Wed Feb  1 16:08:22 2017
Timers Off: Wed Feb  1 16:08:22 2017

Wall Time:        0.00 seconds


***********************************************************

Host: ADAM-PC

Timers On : Wed Feb  1 16:10:26 2017
Timers Off: Wed Feb  1 16:10:26 2017

Wall Time:        0.00 seconds


***********************************************************

Host: ADAM-PC

Timers On : Wed Feb  1 16:10:49 2017
Timers Off: Wed Feb  1 16:10:50 2017

Wall Time:        1.00 seconds


***********************************************************

Host: ADAM-PC

Timers On : Wed Feb  1 16:11:18 2017
Timers Off: Wed Feb  1 16:11:19 2017

Wall Time:        1.00 seconds


***********************************************************

Host: ADAM-PC

Timers On : Wed Feb  1 16:11:29 2017
Timers Off: Wed Feb  1 16:11:29 2017

Wall Time:        0.00 seconds


***********************************************************

Host: ADAM-PC

Timers On : Wed Feb  1 16:14:49 2017
Timers Off: Wed Feb  1 16:14:51 2017

Wall Time:        2.00 seconds


***********************************************************

Host: ADAM-PC

Timers On : Wed Feb  1 16:15:50 2017
Timers Off: Wed Feb  1 16:15:51 2017

Wall Time:        1.00 seconds


***********************************************************

Host: ADAM-PC

Timers On : Wed Feb  1 16:17:10 2017
Timers Off: Wed Feb  1 16:17:11 2017

Wall Time:        1.00 seconds


***********************************************************

Host: ADAM-PC

Timers On : Wed Feb  1 16:19:06 2017
Timers Off: Wed Feb  1 16:19:08 2017

Wall Time:        2.00 seconds


***********************************************************

Host: ADAM-PC

Timers On : Wed Feb  1 16:24:06 2017
Timers Off: Wed Feb  1 16:24:07 2017

Wall Time:        1.00 seconds


***********************************************************

Host: ADAM-PC

Timers On : Wed Feb  1 16:24:11 2017
Timers Off: Wed Feb  1 16:24:12 2017

Wall Time:        1.00 seconds


***********************************************************

Host: ADAM-PC

Timers On : Wed Feb  1 16:24:48 2017
Timers Off: Wed Feb  1 16:24:49 2017

Wall Time:        1.00 seconds


***********************************************************

Host: ADAM-PC

Timers On : Wed Feb  1 16:30:27 2017
Timers Off: Wed Feb  1 16:30:28 2017

Wall Time:        1.00 seconds


***********************************************************

Host: ADAM-PC

Timers On : Wed Feb  1 16:31:09 2017
Timers Off: Wed Feb  1 16:31:10 2017

Wall Time:        1.00 seconds


***********************************************************
