
Host: ADAM-PC

Timers On : Tue Mar 14 11:36:24 2017
Timers Off: Tue Mar 14 11:36:28 2017

Wall Time:        4.00 seconds


***********************************************************

Host: ADAM-PC

Timers On : Tue Mar 14 11:42:12 2017
Timers Off: Tue Mar 14 11:42:15 2017

Wall Time:        3.00 seconds


***********************************************************

Host: ADAM-PC

Timers On : Tue Mar 14 11:46:09 2017
Timers Off: Tue Mar 14 11:46:10 2017

Wall Time:        1.00 seconds


***********************************************************

Host: ADAM-PC

Timers On : Tue Mar 14 11:49:37 2017
Timers Off: Tue Mar 14 11:49:38 2017

Wall Time:        1.00 seconds


***********************************************************

Host: ADAM-PC

Timers On : Tue Mar 14 11:50:42 2017
Timers Off: Tue Mar 14 11:50:42 2017

Wall Time:        0.00 seconds


***********************************************************

Host: ADAM-PC

Timers On : Tue Mar 14 11:52:07 2017
Timers Off: Tue Mar 14 11:52:08 2017

Wall Time:        1.00 seconds


***********************************************************

Host: ADAM-PC

Timers On : Tue Mar 14 11:53:37 2017
Timers Off: Tue Mar 14 11:53:38 2017

Wall Time:        1.00 seconds


***********************************************************

Host: ADAM-PC

Timers On : Tue Mar 14 11:54:06 2017
Timers Off: Tue Mar 14 11:54:06 2017

Wall Time:        0.00 seconds


***********************************************************

Host: ADAM-PC

Timers On : Tue Mar 14 11:54:52 2017
Timers Off: Tue Mar 14 11:54:52 2017

Wall Time:        0.00 seconds


***********************************************************

Host: ADAM-PC

Timers On : Tue Mar 14 11:55:49 2017
Timers Off: Tue Mar 14 11:55:51 2017

Wall Time:        2.00 seconds


***********************************************************

Host: ADAM-PC

Timers On : Tue Mar 14 11:57:43 2017
Timers Off: Tue Mar 14 11:57:45 2017

Wall Time:        2.00 seconds


***********************************************************

Host: ADAM-PC

Timers On : Tue Mar 14 11:59:02 2017
Timers Off: Tue Mar 14 11:59:04 2017

Wall Time:        2.00 seconds


***********************************************************

Host: ADAM-PC

Timers On : Tue Mar 14 12:00:25 2017
Timers Off: Tue Mar 14 12:00:38 2017

Wall Time:       13.00 seconds

Total PK formation time:       0.12u       0.03s 0.10627500w      1 call
HF: Form H  :       0.00u       0.00s 0.00000000w      1 call
HF: Form S/X:       0.10u       0.00s 0.01562400w      1 call
HF: Guess   :       0.10u       0.00s 0.01562600w      1 call
HF: Form G  :       0.33u       0.01s   0.030637w      8 calls
JK: D       :       0.00u       0.00s   0.000500w      8 calls
JK: USO2AO  :       0.00u       0.00s   0.000000w      8 calls
JK: JK      :       0.00u       0.00s   0.000499w      8 calls
PK computes JK:       0.00u       0.00s   0.000499w      8 calls
JK: AO2USO  :       0.00u       0.00s   0.000000w      8 calls
HF: Form F  :       0.53u       0.05s   0.074398w      8 calls
HF: DIIS    :       0.00u       0.00s   0.011011w      8 calls
DIISManager::add_entry:       0.00u       0.00s   0.002002w      8 calls
HF: Form C  :       0.00u       0.00s   0.001000w      8 calls
HF: Form D  :       0.12u       0.00s   0.025632w      8 calls
DIISManager::extrapolate:       0.00u       0.00s   0.008008w      7 calls
DIISManager::extrapolate: bMatrix setup:       0.00u       0.00s   0.000000w      7 calls
DIISManager::extrapolate: bMatrix pseudoinverse:       0.00u       0.00s   0.008008w      7 calls
DIISManager::extrapolate: form new data:       0.00u       0.00s   0.000000w      7 calls

***********************************************************

Host: ADAM-PC

Timers On : Tue Mar 14 12:01:21 2017
Timers Off: Tue Mar 14 12:01:23 2017

Wall Time:        2.00 seconds


***********************************************************

Host: ADAM-PC

Timers On : Tue Mar 14 12:11:22 2017
Timers Off: Tue Mar 14 12:11:27 2017

Wall Time:        5.00 seconds


***********************************************************

Host: ADAM-PC

Timers On : Tue Mar 14 13:39:52 2017
Timers Off: Tue Mar 14 13:39:58 2017

Wall Time:        6.00 seconds


***********************************************************

Host: ADAM-PC

Timers On : Tue Mar 14 16:41:02 2017
Timers Off: Tue Mar 14 16:41:08 2017

Wall Time:        6.00 seconds


***********************************************************

Host: ADAM-PC

Timers On : Tue Jun 20 17:07:16 2017
Timers Off: Tue Jun 20 17:07:22 2017

Wall Time:        6.00 seconds


***********************************************************

Host: ADAM-PC

Timers On : Tue Jun 20 17:18:22 2017
Timers Off: Tue Jun 20 17:18:27 2017

Wall Time:        5.00 seconds


***********************************************************

Host: ADAM-PC

Timers On : Tue Jun 20 19:48:53 2017
Timers Off: Tue Jun 20 19:48:58 2017

Wall Time:        5.00 seconds


***********************************************************

Host: ADAM-PC

Timers On : Tue Jun 20 21:15:47 2017
Timers Off: Tue Jun 20 21:15:53 2017

Wall Time:        6.00 seconds


***********************************************************

Host: ADAM-PC

Timers On : Wed Jun 21 18:03:30 2017
Timers Off: Wed Jun 21 18:03:32 2017

Wall Time:        2.00 seconds


***********************************************************

Host: ADAM-PC

Timers On : Wed Jun 21 18:04:44 2017
Timers Off: Wed Jun 21 18:04:46 2017

Wall Time:        2.00 seconds


***********************************************************
