
Host: ADAM-PC

Timers On : Wed Jun 21 11:16:15 2017
Timers Off: Wed Jun 21 11:16:15 2017

Wall Time:        0.00 seconds


***********************************************************

Host: ADAM-PC

Timers On : Wed Jun 21 11:16:32 2017
Timers Off: Wed Jun 21 11:16:32 2017

Wall Time:        0.00 seconds


***********************************************************

Host: ADAM-PC

Timers On : Wed Jun 21 11:38:31 2017
Timers Off: Wed Jun 21 11:38:32 2017

Wall Time:        1.00 seconds


***********************************************************

Host: ADAM-PC

Timers On : Wed Jun 21 11:38:54 2017
Timers Off: Wed Jun 21 11:38:54 2017

Wall Time:        0.00 seconds


***********************************************************

Host: ADAM-PC

Timers On : Wed Jun 21 11:42:33 2017
Timers Off: Wed Jun 21 11:42:33 2017

Wall Time:        0.00 seconds


***********************************************************

Host: ADAM-PC

Timers On : Wed Jun 21 11:42:54 2017
Timers Off: Wed Jun 21 11:42:55 2017

Wall Time:        1.00 seconds


***********************************************************

Host: ADAM-PC

Timers On : Wed Jun 21 11:43:07 2017
Timers Off: Wed Jun 21 11:43:08 2017

Wall Time:        1.00 seconds


***********************************************************

Host: ADAM-PC

Timers On : Wed Jun 21 11:48:46 2017
Timers Off: Wed Jun 21 11:48:47 2017

Wall Time:        1.00 seconds


***********************************************************

Host: ADAM-PC

Timers On : Wed Jun 21 11:49:00 2017
Timers Off: Wed Jun 21 11:49:01 2017

Wall Time:        1.00 seconds


***********************************************************

Host: ADAM-PC

Timers On : Wed Jun 21 11:49:30 2017
Timers Off: Wed Jun 21 11:49:31 2017

Wall Time:        1.00 seconds


***********************************************************

Host: ADAM-PC

Timers On : Wed Jun 21 11:53:37 2017
Timers Off: Wed Jun 21 11:53:38 2017

Wall Time:        1.00 seconds


***********************************************************

Host: ADAM-PC

Timers On : Wed Jun 21 11:54:44 2017
Timers Off: Wed Jun 21 11:54:44 2017

Wall Time:        0.00 seconds


***********************************************************

Host: ADAM-PC

Timers On : Wed Jun 21 11:54:59 2017
Timers Off: Wed Jun 21 11:55:00 2017

Wall Time:        1.00 seconds


***********************************************************

Host: ADAM-PC

Timers On : Wed Jun 21 12:08:49 2017
Timers Off: Wed Jun 21 12:08:49 2017

Wall Time:        0.00 seconds


***********************************************************

Host: ADAM-PC

Timers On : Wed Jun 21 12:09:22 2017
Timers Off: Wed Jun 21 12:09:22 2017

Wall Time:        0.00 seconds


***********************************************************

Host: ADAM-PC

Timers On : Wed Jun 21 12:09:40 2017
Timers Off: Wed Jun 21 12:09:41 2017

Wall Time:        1.00 seconds


***********************************************************

Host: ADAM-PC

Timers On : Wed Jun 21 12:10:58 2017
Timers Off: Wed Jun 21 12:10:58 2017

Wall Time:        0.00 seconds


***********************************************************

Host: ADAM-PC

Timers On : Wed Jun 21 13:02:24 2017
Timers Off: Wed Jun 21 13:02:25 2017

Wall Time:        1.00 seconds


***********************************************************

Host: ADAM-PC

Timers On : Wed Jun 21 13:02:44 2017
Timers Off: Wed Jun 21 13:02:44 2017

Wall Time:        0.00 seconds


***********************************************************

Host: ADAM-PC

Timers On : Wed Jun 21 13:03:04 2017
Timers Off: Wed Jun 21 13:03:05 2017

Wall Time:        1.00 seconds


***********************************************************

Host: ADAM-PC

Timers On : Wed Jun 21 13:14:34 2017
Timers Off: Wed Jun 21 13:14:35 2017

Wall Time:        1.00 seconds


***********************************************************

Host: ADAM-PC

Timers On : Wed Jun 21 13:15:05 2017
Timers Off: Wed Jun 21 13:15:07 2017

Wall Time:        2.00 seconds


***********************************************************

Host: ADAM-PC

Timers On : Wed Jun 21 13:21:18 2017
Timers Off: Wed Jun 21 13:21:19 2017

Wall Time:        1.00 seconds


***********************************************************

Host: ADAM-PC

Timers On : Wed Jun 21 13:23:12 2017
Timers Off: Wed Jun 21 13:23:13 2017

Wall Time:        1.00 seconds


***********************************************************

Host: ADAM-PC

Timers On : Wed Jun 21 13:23:53 2017
Timers Off: Wed Jun 21 13:23:55 2017

Wall Time:        2.00 seconds


***********************************************************

Host: ADAM-PC

Timers On : Wed Jun 21 13:24:12 2017
Timers Off: Wed Jun 21 13:24:13 2017

Wall Time:        1.00 seconds


***********************************************************

Host: ADAM-PC

Timers On : Wed Jun 21 13:25:50 2017
Timers Off: Wed Jun 21 13:25:51 2017

Wall Time:        1.00 seconds


***********************************************************

Host: ADAM-PC

Timers On : Wed Jun 21 13:26:17 2017
Timers Off: Wed Jun 21 13:26:18 2017

Wall Time:        1.00 seconds


***********************************************************

Host: ADAM-PC

Timers On : Wed Jun 21 13:27:59 2017
Timers Off: Wed Jun 21 13:28:00 2017

Wall Time:        1.00 seconds


***********************************************************

Host: ADAM-PC

Timers On : Wed Jun 21 13:28:41 2017
Timers Off: Wed Jun 21 13:28:42 2017

Wall Time:        1.00 seconds


***********************************************************

Host: ADAM-PC

Timers On : Wed Jun 21 13:29:11 2017
Timers Off: Wed Jun 21 13:29:12 2017

Wall Time:        1.00 seconds


***********************************************************

Host: ADAM-PC

Timers On : Wed Jun 21 13:29:32 2017
Timers Off: Wed Jun 21 13:29:34 2017

Wall Time:        2.00 seconds


***********************************************************

Host: ADAM-PC

Timers On : Wed Jun 21 13:57:16 2017
Timers Off: Wed Jun 21 13:57:17 2017

Wall Time:        1.00 seconds


***********************************************************

Host: ADAM-PC

Timers On : Wed Jun 21 13:57:27 2017
Timers Off: Wed Jun 21 13:57:28 2017

Wall Time:        1.00 seconds


***********************************************************

Host: ADAM-PC

Timers On : Wed Jun 21 13:58:32 2017
Timers Off: Wed Jun 21 13:58:33 2017

Wall Time:        1.00 seconds


***********************************************************

Host: ADAM-PC

Timers On : Wed Jun 21 13:58:58 2017
Timers Off: Wed Jun 21 13:59:00 2017

Wall Time:        2.00 seconds


***********************************************************

Host: ADAM-PC

Timers On : Wed Jun 21 13:59:16 2017
Timers Off: Wed Jun 21 13:59:17 2017

Wall Time:        1.00 seconds


***********************************************************

Host: ADAM-PC

Timers On : Wed Jun 21 14:00:59 2017
Timers Off: Wed Jun 21 14:01:00 2017

Wall Time:        1.00 seconds


***********************************************************

Host: ADAM-PC

Timers On : Wed Jun 21 14:01:18 2017
Timers Off: Wed Jun 21 14:01:19 2017

Wall Time:        1.00 seconds


***********************************************************

Host: ADAM-PC

Timers On : Wed Jun 21 14:01:37 2017
Timers Off: Wed Jun 21 14:01:39 2017

Wall Time:        2.00 seconds


***********************************************************

Host: ADAM-PC

Timers On : Wed Jun 21 14:11:20 2017
Timers Off: Wed Jun 21 14:11:21 2017

Wall Time:        1.00 seconds


***********************************************************

Host: ADAM-PC

Timers On : Wed Jun 21 14:11:53 2017
Timers Off: Wed Jun 21 14:11:54 2017

Wall Time:        1.00 seconds


***********************************************************

Host: ADAM-PC

Timers On : Wed Jun 21 14:12:10 2017
Timers Off: Wed Jun 21 14:12:11 2017

Wall Time:        1.00 seconds


***********************************************************

Host: ADAM-PC

Timers On : Wed Jun 21 14:12:33 2017
Timers Off: Wed Jun 21 14:12:34 2017

Wall Time:        1.00 seconds


***********************************************************

Host: ADAM-PC

Timers On : Wed Jun 21 14:12:57 2017
Timers Off: Wed Jun 21 14:12:58 2017

Wall Time:        1.00 seconds


***********************************************************

Host: ADAM-PC

Timers On : Wed Jun 21 14:18:16 2017
Timers Off: Wed Jun 21 14:18:17 2017

Wall Time:        1.00 seconds


***********************************************************

Host: ADAM-PC

Timers On : Wed Jun 21 14:18:30 2017
Timers Off: Wed Jun 21 14:18:31 2017

Wall Time:        1.00 seconds


***********************************************************

Host: ADAM-PC

Timers On : Wed Jun 21 14:19:13 2017
Timers Off: Wed Jun 21 14:19:15 2017

Wall Time:        2.00 seconds


***********************************************************

Host: ADAM-PC

Timers On : Wed Jun 21 14:19:37 2017
Timers Off: Wed Jun 21 14:19:38 2017

Wall Time:        1.00 seconds


***********************************************************

Host: ADAM-PC

Timers On : Wed Jun 21 14:43:02 2017
Timers Off: Wed Jun 21 14:43:04 2017

Wall Time:        2.00 seconds


***********************************************************

Host: ADAM-PC

Timers On : Wed Jun 21 14:44:44 2017
Timers Off: Wed Jun 21 14:44:45 2017

Wall Time:        1.00 seconds


***********************************************************

Host: ADAM-PC

Timers On : Wed Jun 21 14:44:59 2017
Timers Off: Wed Jun 21 14:45:00 2017

Wall Time:        1.00 seconds


***********************************************************

Host: ADAM-PC

Timers On : Wed Jun 21 14:45:11 2017
Timers Off: Wed Jun 21 14:45:13 2017

Wall Time:        2.00 seconds


***********************************************************
