
Host: ADAM-PC

Timers On : Sat Feb 11 12:20:41 2017
Timers Off: Sat Feb 11 12:20:42 2017

Wall Time:        1.00 seconds


***********************************************************

Host: ADAM-PC

Timers On : Sat Feb 11 12:21:02 2017
Timers Off: Sat Feb 11 12:21:03 2017

Wall Time:        1.00 seconds


***********************************************************

Host: ADAM-PC

Timers On : Sat Feb 11 12:24:58 2017
Timers Off: Sat Feb 11 12:24:59 2017

Wall Time:        1.00 seconds


***********************************************************

Host: ADAM-PC

Timers On : Sat Feb 11 12:30:59 2017
Timers Off: Sat Feb 11 12:31:00 2017

Wall Time:        1.00 seconds


***********************************************************

Host: ADAM-PC

Timers On : Sat Feb 11 12:32:26 2017
Timers Off: Sat Feb 11 12:32:27 2017

Wall Time:        1.00 seconds


***********************************************************

Host: ADAM-PC

Timers On : Sat Feb 11 12:33:16 2017
Timers Off: Sat Feb 11 12:33:17 2017

Wall Time:        1.00 seconds


***********************************************************

Host: ADAM-PC

Timers On : Sat Feb 11 12:33:21 2017
Timers Off: Sat Feb 11 12:33:22 2017

Wall Time:        1.00 seconds


***********************************************************

Host: ADAM-PC

Timers On : Sat Feb 11 12:34:46 2017
Timers Off: Sat Feb 11 12:34:47 2017

Wall Time:        1.00 seconds


***********************************************************

Host: ADAM-PC

Timers On : Sat Feb 11 12:35:58 2017
Timers Off: Sat Feb 11 12:35:59 2017

Wall Time:        1.00 seconds


***********************************************************

Host: ADAM-PC

Timers On : Sat Feb 11 12:36:54 2017
Timers Off: Sat Feb 11 12:36:54 2017

Wall Time:        0.00 seconds


***********************************************************

Host: ADAM-PC

Timers On : Sat Feb 11 12:37:45 2017
Timers Off: Sat Feb 11 12:37:45 2017

Wall Time:        0.00 seconds


***********************************************************

Host: ADAM-PC

Timers On : Sat Feb 11 12:38:42 2017
Timers Off: Sat Feb 11 12:38:42 2017

Wall Time:        0.00 seconds


***********************************************************

Host: ADAM-PC

Timers On : Sat Feb 11 12:39:07 2017
Timers Off: Sat Feb 11 12:39:07 2017

Wall Time:        0.00 seconds


***********************************************************

Host: ADAM-PC

Timers On : Sat Feb 11 12:39:29 2017
Timers Off: Sat Feb 11 12:39:29 2017

Wall Time:        0.00 seconds


***********************************************************

Host: ADAM-PC

Timers On : Sat Feb 11 12:39:47 2017
Timers Off: Sat Feb 11 12:39:47 2017

Wall Time:        0.00 seconds


***********************************************************

Host: ADAM-PC

Timers On : Sat Feb 11 12:40:13 2017
Timers Off: Sat Feb 11 12:40:13 2017

Wall Time:        0.00 seconds


***********************************************************

Host: ADAM-PC

Timers On : Sat Feb 11 12:43:26 2017
Timers Off: Sat Feb 11 12:43:26 2017

Wall Time:        0.00 seconds


***********************************************************

Host: ADAM-PC

Timers On : Sat Feb 11 12:43:50 2017
Timers Off: Sat Feb 11 12:43:51 2017

Wall Time:        1.00 seconds


***********************************************************

Host: ADAM-PC

Timers On : Sat Feb 11 12:49:38 2017
Timers Off: Sat Feb 11 12:49:39 2017

Wall Time:        1.00 seconds


***********************************************************

Host: ADAM-PC

Timers On : Sat Feb 11 12:49:59 2017
Timers Off: Sat Feb 11 12:49:59 2017

Wall Time:        0.00 seconds


***********************************************************

Host: ADAM-PC

Timers On : Sat Feb 11 12:50:10 2017
Timers Off: Sat Feb 11 12:50:11 2017

Wall Time:        1.00 seconds


***********************************************************

Host: ADAM-PC

Timers On : Sat Feb 11 12:51:40 2017
Timers Off: Sat Feb 11 12:51:41 2017

Wall Time:        1.00 seconds


***********************************************************

Host: ADAM-PC

Timers On : Sat Feb 11 12:58:15 2017
Timers Off: Sat Feb 11 12:58:16 2017

Wall Time:        1.00 seconds


***********************************************************

Host: ADAM-PC

Timers On : Sat Feb 11 13:06:34 2017
Timers Off: Sat Feb 11 13:06:35 2017

Wall Time:        1.00 seconds


***********************************************************

Host: ADAM-PC

Timers On : Sat Feb 11 13:08:28 2017
Timers Off: Sat Feb 11 13:08:29 2017

Wall Time:        1.00 seconds


***********************************************************

Host: ADAM-PC

Timers On : Sat Feb 11 13:11:24 2017
Timers Off: Sat Feb 11 13:11:24 2017

Wall Time:        0.00 seconds


***********************************************************

Host: ADAM-PC

Timers On : Sat Feb 11 13:12:03 2017
Timers Off: Sat Feb 11 13:12:04 2017

Wall Time:        1.00 seconds


***********************************************************

Host: ADAM-PC

Timers On : Sat Feb 11 13:17:49 2017
Timers Off: Sat Feb 11 13:17:49 2017

Wall Time:        0.00 seconds


***********************************************************

Host: ADAM-PC

Timers On : Sat Feb 11 13:19:13 2017
Timers Off: Sat Feb 11 13:19:13 2017

Wall Time:        0.00 seconds


***********************************************************

Host: ADAM-PC

Timers On : Sat Feb 11 13:27:31 2017
Timers Off: Sat Feb 11 13:27:32 2017

Wall Time:        1.00 seconds


***********************************************************

Host: ADAM-PC

Timers On : Sat Feb 11 13:33:16 2017
Timers Off: Sat Feb 11 13:33:16 2017

Wall Time:        0.00 seconds


***********************************************************

Host: ADAM-PC

Timers On : Sat Feb 11 13:34:47 2017
Timers Off: Sat Feb 11 13:34:48 2017

Wall Time:        1.00 seconds


***********************************************************

Host: ADAM-PC

Timers On : Sat Feb 11 13:35:06 2017
Timers Off: Sat Feb 11 13:35:06 2017

Wall Time:        0.00 seconds


***********************************************************

Host: ADAM-PC

Timers On : Sat Feb 11 13:36:19 2017
Timers Off: Sat Feb 11 13:36:19 2017

Wall Time:        0.00 seconds


***********************************************************

Host: ADAM-PC

Timers On : Sat Feb 11 13:37:14 2017
Timers Off: Sat Feb 11 13:37:14 2017

Wall Time:        0.00 seconds


***********************************************************

Host: ADAM-PC

Timers On : Sat Feb 11 13:50:53 2017
Timers Off: Sat Feb 11 13:50:54 2017

Wall Time:        1.00 seconds


***********************************************************

Host: ADAM-PC

Timers On : Sat Feb 11 13:51:20 2017
Timers Off: Sat Feb 11 13:51:20 2017

Wall Time:        0.00 seconds


***********************************************************

Host: ADAM-PC

Timers On : Sat Feb 11 13:54:30 2017
Timers Off: Sat Feb 11 13:54:31 2017

Wall Time:        1.00 seconds


***********************************************************

Host: ADAM-PC

Timers On : Sat Feb 11 13:54:56 2017
Timers Off: Sat Feb 11 13:54:57 2017

Wall Time:        1.00 seconds


***********************************************************

Host: ADAM-PC

Timers On : Sat Feb 11 13:56:14 2017
Timers Off: Sat Feb 11 13:56:15 2017

Wall Time:        1.00 seconds


***********************************************************

Host: ADAM-PC

Timers On : Sat Feb 11 13:57:08 2017
Timers Off: Sat Feb 11 13:57:08 2017

Wall Time:        0.00 seconds


***********************************************************

Host: ADAM-PC

Timers On : Sat Feb 11 13:57:53 2017
Timers Off: Sat Feb 11 13:57:54 2017

Wall Time:        1.00 seconds


***********************************************************

Host: ADAM-PC

Timers On : Sat Feb 11 14:04:05 2017
Timers Off: Sat Feb 11 14:04:06 2017

Wall Time:        1.00 seconds


***********************************************************

Host: ADAM-PC

Timers On : Sat Feb 11 14:05:02 2017
Timers Off: Sat Feb 11 14:05:03 2017

Wall Time:        1.00 seconds


***********************************************************

Host: ADAM-PC

Timers On : Sat Feb 11 14:17:44 2017
Timers Off: Sat Feb 11 14:17:44 2017

Wall Time:        0.00 seconds


***********************************************************

Host: ADAM-PC

Timers On : Sat Feb 11 14:19:10 2017
Timers Off: Sat Feb 11 14:19:10 2017

Wall Time:        0.00 seconds


***********************************************************

Host: ADAM-PC

Timers On : Sat Feb 11 14:24:04 2017
Timers Off: Sat Feb 11 14:24:04 2017

Wall Time:        0.00 seconds


***********************************************************

Host: ADAM-PC

Timers On : Sat Feb 11 14:24:54 2017
Timers Off: Sat Feb 11 14:24:55 2017

Wall Time:        1.00 seconds


***********************************************************

Host: ADAM-PC

Timers On : Sat Feb 11 14:25:18 2017
Timers Off: Sat Feb 11 14:25:19 2017

Wall Time:        1.00 seconds


***********************************************************

Host: ADAM-PC

Timers On : Sat Feb 11 14:27:02 2017
Timers Off: Sat Feb 11 14:27:02 2017

Wall Time:        0.00 seconds


***********************************************************

Host: ADAM-PC

Timers On : Sat Feb 11 14:28:49 2017
Timers Off: Sat Feb 11 14:28:49 2017

Wall Time:        0.00 seconds


***********************************************************

Host: ADAM-PC

Timers On : Sat Feb 11 14:28:59 2017
Timers Off: Sat Feb 11 14:29:00 2017

Wall Time:        1.00 seconds


***********************************************************

Host: ADAM-PC

Timers On : Sat Feb 11 14:33:07 2017
Timers Off: Sat Feb 11 14:33:08 2017

Wall Time:        1.00 seconds


***********************************************************

Host: ADAM-PC

Timers On : Sat Feb 11 14:34:08 2017
Timers Off: Sat Feb 11 14:34:08 2017

Wall Time:        0.00 seconds


***********************************************************

Host: ADAM-PC

Timers On : Sat Feb 11 14:35:57 2017
Timers Off: Sat Feb 11 14:35:57 2017

Wall Time:        0.00 seconds


***********************************************************

Host: ADAM-PC

Timers On : Sat Feb 11 14:36:54 2017
Timers Off: Sat Feb 11 14:36:55 2017

Wall Time:        1.00 seconds


***********************************************************

Host: ADAM-PC

Timers On : Sat Feb 11 14:38:02 2017
Timers Off: Sat Feb 11 14:38:02 2017

Wall Time:        0.00 seconds


***********************************************************

Host: ADAM-PC

Timers On : Sat Feb 11 14:38:41 2017
Timers Off: Sat Feb 11 14:38:41 2017

Wall Time:        0.00 seconds


***********************************************************

Host: ADAM-PC

Timers On : Sat Feb 11 14:39:25 2017
Timers Off: Sat Feb 11 14:39:26 2017

Wall Time:        1.00 seconds


***********************************************************

Host: ADAM-PC

Timers On : Sat Feb 11 14:39:42 2017
Timers Off: Sat Feb 11 14:39:42 2017

Wall Time:        0.00 seconds


***********************************************************

Host: ADAM-PC

Timers On : Sat Feb 11 14:40:17 2017
Timers Off: Sat Feb 11 14:40:18 2017

Wall Time:        1.00 seconds


***********************************************************

Host: ADAM-PC

Timers On : Sat Feb 11 14:42:47 2017
Timers Off: Sat Feb 11 14:42:47 2017

Wall Time:        0.00 seconds


***********************************************************

Host: ADAM-PC

Timers On : Sat Feb 11 14:43:40 2017
Timers Off: Sat Feb 11 14:43:40 2017

Wall Time:        0.00 seconds


***********************************************************

Host: ADAM-PC

Timers On : Sat Feb 11 14:44:07 2017
Timers Off: Sat Feb 11 14:44:07 2017

Wall Time:        0.00 seconds


***********************************************************

Host: ADAM-PC

Timers On : Sat Feb 11 14:44:53 2017
Timers Off: Sat Feb 11 14:44:54 2017

Wall Time:        1.00 seconds


***********************************************************

Host: ADAM-PC

Timers On : Sat Feb 11 15:07:31 2017
Timers Off: Sat Feb 11 15:07:32 2017

Wall Time:        1.00 seconds


***********************************************************

Host: ADAM-PC

Timers On : Sat Feb 11 15:08:30 2017
Timers Off: Sat Feb 11 15:08:31 2017

Wall Time:        1.00 seconds


***********************************************************

Host: ADAM-PC

Timers On : Sat Feb 11 15:09:11 2017
Timers Off: Sat Feb 11 15:09:17 2017

Wall Time:        6.00 seconds


***********************************************************

Host: ADAM-PC

Timers On : Sat Feb 11 15:10:40 2017
Timers Off: Sat Feb 11 15:10:46 2017

Wall Time:        6.00 seconds


***********************************************************

Host: ADAM-PC

Timers On : Sat Feb 11 15:10:59 2017
Timers Off: Sat Feb 11 15:11:16 2017

Wall Time:       17.00 seconds


***********************************************************

Host: ADAM-PC

Timers On : Sat Feb 11 15:15:36 2017
Timers Off: Sat Feb 11 15:15:55 2017

Wall Time:       19.00 seconds

Total PK formation time:       0.26u       0.09s 0.11607000w      1 call
HF: Form H  :       0.00u       0.00s 0.00000000w      1 call
HF: Form S/X:       0.00u       0.00s 0.00000000w      1 call
HF: Guess   :       0.11u       0.00s 0.01713200w      1 call
HF: Form G  :       0.30u       0.01s   0.027264w      8 calls
JK: D       :       0.00u       0.00s   0.000000w      8 calls
JK: USO2AO  :       0.00u       0.00s   0.000000w      8 calls
JK: JK      :       0.11u       0.01s   0.000503w      8 calls
PK computes JK:       0.11u       0.01s   0.000503w      8 calls
JK: AO2USO  :       0.00u       0.00s   0.000000w      8 calls
HF: Form F  :       0.42u       0.00s   0.068795w      8 calls
HF: DIIS    :       0.00u       0.00s   0.008319w      8 calls
DIISManager::add_entry:       0.00u       0.00s   0.002005w      8 calls
HF: Form C  :       0.00u       0.00s   0.001000w      8 calls
HF: Form D  :       0.00u       0.00s   0.006004w      8 calls
DIISManager::extrapolate:       0.00u       0.00s   0.005002w      7 calls
DIISManager::extrapolate: bMatrix setup:       0.00u       0.00s   0.000500w      7 calls
DIISManager::extrapolate: bMatrix pseudoinverse:       0.00u       0.00s   0.004170w      7 calls
DIISManager::extrapolate: form new data:       0.00u       0.00s   0.000332w      7 calls
DFMP2 Singles:       0.00u       0.00s 0.00000000w      1 call
DFMP2 Aia   :       0.22u       0.06s 0.14068900w      1 call
DFMP2 (A|mn):       0.03u       0.00s 0.00750500w      1 call
DFMP2 (A|mn)C_mi:       0.00u       0.00s   0.000000w      2 calls
DFMP2 (A|mi)C_na:       0.05u       0.00s   0.016010w      2 calls
DFMP2 Aia Write:       0.00u       0.00s   0.001001w      2 calls
DFMP2 Qia   :       0.34u       0.16s 0.19648700w      1 call
DFMP2 Metric:       0.34u       0.16s 0.19598800w      1 call
DFMP2 Aia Read:       0.00u       0.00s   0.000000w      2 calls
DFMP2 (Q|A)(A|ia):       0.00u       0.00s   0.000000w      2 calls
DFMP2 Qia Write:       0.00u       0.00s   0.000000w      2 calls
DFMP2 Energy:       0.08u       0.01s 0.01562700w      1 call
DFMP2 Qia Read:       0.00u       0.00s   0.000000w      6 calls

***********************************************************

Host: ADAM-PC

Timers On : Sat Feb 11 15:19:38 2017
Timers Off: Sat Feb 11 15:19:56 2017

Wall Time:       18.00 seconds


***********************************************************

Host: ADAM-PC

Timers On : Sat Feb 11 15:22:15 2017
Timers Off: Sat Feb 11 15:23:02 2017

Wall Time:       47.00 seconds


***********************************************************

Host: ADAM-PC

Timers On : Mon Feb 13 11:26:47 2017
Timers Off: Mon Feb 13 11:26:49 2017

Wall Time:        2.00 seconds


***********************************************************

Host: ADAM-PC

Timers On : Mon Feb 13 11:28:28 2017
Timers Off: Mon Feb 13 11:28:29 2017

Wall Time:        1.00 seconds


***********************************************************

Host: ADAM-PC

Timers On : Mon Feb 13 11:30:00 2017
Timers Off: Mon Feb 13 11:30:02 2017

Wall Time:        2.00 seconds


***********************************************************

Host: ADAM-PC

Timers On : Mon Feb 13 11:31:35 2017
Timers Off: Mon Feb 13 11:31:37 2017

Wall Time:        2.00 seconds


***********************************************************

Host: ADAM-PC

Timers On : Mon Feb 13 11:39:09 2017
Timers Off: Mon Feb 13 11:39:13 2017

Wall Time:        4.00 seconds

Total PK formation time:       0.23u       0.06s 0.16896200w      1 call
HF: Form H  :       0.00u       0.02s 0.01562700w      1 call
HF: Form S/X:       0.00u       0.00s 0.00000000w      1 call
HF: Guess   :       0.35u       0.03s 0.04687500w      1 call
HF: Form G  :       0.22u       0.02s   0.034021w      8 calls
JK: D       :       0.00u       0.00s   0.000000w      8 calls
JK: USO2AO  :       0.00u       0.00s   0.000000w      8 calls
JK: JK      :       0.00u       0.00s   0.000000w      8 calls
PK computes JK:       0.00u       0.00s   0.000000w      8 calls
JK: AO2USO  :       0.00u       0.00s   0.000000w      8 calls
HF: Form F  :       0.33u       0.03s   0.046646w      8 calls
HF: DIIS    :       0.28u       0.06s   0.050648w      8 calls
DIISManager::add_entry:       0.09u       0.03s   0.018125w      8 calls
HF: Form C  :       0.06u       0.05s   0.003504w      8 calls
HF: Form D  :       0.11u       0.00s   0.021511w      8 calls
DIISManager::extrapolate:       0.19u       0.03s   0.032523w      7 calls
DIISManager::extrapolate: bMatrix setup:       0.00u       0.00s   0.001999w      7 calls
DIISManager::extrapolate: bMatrix pseudoinverse:       0.19u       0.03s   0.029038w      7 calls
DIISManager::extrapolate: form new data:       0.00u       0.00s   0.001486w      7 calls
DFMP2 Singles:       0.00u       0.00s 0.00000000w      1 call
DFMP2 Aia   :       0.39u       0.06s 0.27077200w      1 call
DFMP2 (A|mn):       0.00u       0.00s 0.00950300w      1 call
DFMP2 (A|mn)C_mi:       0.00u       0.00s   0.000000w      2 calls
DFMP2 (A|mi)C_na:       0.00u       0.00s   0.001001w      2 calls
DFMP2 Aia Write:       0.00u       0.00s   0.000000w      2 calls
DFMP2 Qia   :       0.69u       0.41s 0.57620900w      1 call
DFMP2 Metric:       0.69u       0.35s 0.55769700w      1 call
DFMP2 Aia Read:       0.00u       0.06s   0.008505w      2 calls
DFMP2 (Q|A)(A|ia):       0.00u       0.00s   0.003502w      2 calls
DFMP2 Qia Write:       0.00u       0.00s   0.000500w      2 calls
DFMP2 Energy:       0.20u       0.05s 0.04453100w      1 call
DFMP2 Qia Read:       0.00u       0.00s   0.000500w      6 calls

***********************************************************

Host: ADAM-PC

Timers On : Mon Feb 13 11:40:17 2017
Timers Off: Mon Feb 13 11:40:21 2017

Wall Time:        4.00 seconds

Total PK formation time:       0.12u       0.03s 0.18886600w      1 call
HF: Form H  :       0.00u       0.02s 0.01562600w      1 call
HF: Form S/X:       0.00u       0.00s 0.00000000w      1 call
HF: Guess   :       0.27u       0.08s 0.05339300w      1 call
HF: Form G  :       0.42u       0.03s   0.062658w      8 calls
JK: D       :       0.00u       0.00s   0.000000w      8 calls
JK: USO2AO  :       0.00u       0.00s   0.000000w      8 calls
JK: JK      :       0.00u       0.00s   0.000000w      8 calls
PK computes JK:       0.00u       0.00s   0.000000w      8 calls
JK: AO2USO  :       0.00u       0.00s   0.000000w      8 calls
HF: Form F  :       1.02u       0.09s   0.126702w      8 calls
HF: DIIS    :       0.16u       0.06s   0.040530w      8 calls
DIISManager::add_entry:       0.00u       0.00s   0.009511w      8 calls
HF: Form C  :       0.00u       0.00s   0.004008w      8 calls
HF: Form D  :       0.11u       0.00s   0.028011w      8 calls
DIISManager::extrapolate:       0.16u       0.06s   0.030519w      7 calls
DIISManager::extrapolate: bMatrix setup:       0.00u       0.00s   0.001501w      7 calls
DIISManager::extrapolate: bMatrix pseudoinverse:       0.16u       0.06s   0.028016w      7 calls
DIISManager::extrapolate: form new data:       0.00u       0.00s   0.000501w      7 calls
DFMP2 Singles:       0.00u       0.00s 0.00000000w      1 call
DFMP2 Aia   :       0.60u       0.09s 0.38343400w      1 call
DFMP2 (A|mn):       0.03u       0.00s 0.02251400w      1 call
DFMP2 (A|mn)C_mi:       0.00u       0.00s   0.000000w      2 calls
DFMP2 (A|mi)C_na:       0.16u       0.00s   0.066545w      2 calls
DFMP2 Aia Write:       0.00u       0.00s   0.001502w      2 calls
DFMP2 Qia   :       0.70u       0.38s 0.55607400w      1 call
DFMP2 Metric:       0.67u       0.31s 0.53756200w      1 call
DFMP2 Aia Read:       0.03u       0.07s   0.009005w      2 calls
DFMP2 (Q|A)(A|ia):       0.00u       0.00s   0.002500w      2 calls
DFMP2 Qia Write:       0.00u       0.00s   0.000501w      2 calls
DFMP2 Energy:       0.20u       0.06s 0.03602500w      1 call
DFMP2 Qia Read:       0.00u       0.00s   0.000500w      6 calls

***********************************************************

Host: ADAM-PC

Timers On : Wed Feb 15 10:02:53 2017
Timers Off: Wed Feb 15 10:02:55 2017

Wall Time:        2.00 seconds

Total PK formation time:       0.09u       0.10s 0.11640500w      1 call
HF: Form H  :       0.00u       0.00s 0.00000000w      1 call
HF: Form S/X:       0.05u       0.04s 0.01562700w      1 call
HF: Guess   :       0.06u       0.05s 0.01562500w      1 call
HF: Form G  :       0.10u       0.00s   0.030519w      8 calls
JK: D       :       0.00u       0.00s   0.000500w      8 calls
JK: USO2AO  :       0.00u       0.00s   0.000000w      8 calls
JK: JK      :       0.00u       0.00s   0.000000w      8 calls
PK computes JK:       0.00u       0.00s   0.000000w      8 calls
JK: AO2USO  :       0.00u       0.00s   0.000000w      8 calls
HF: Form F  :       0.66u       0.07s   0.073669w      8 calls
HF: DIIS    :       0.00u       0.00s   0.009507w      8 calls
DIISManager::add_entry:       0.00u       0.00s   0.002503w      8 calls
HF: Form C  :       0.00u       0.00s   0.002505w      8 calls
HF: Form D  :       0.00u       0.00s   0.023510w      8 calls
DIISManager::extrapolate:       0.00u       0.00s   0.006004w      7 calls
DIISManager::extrapolate: bMatrix setup:       0.00u       0.00s   0.001502w      7 calls
DIISManager::extrapolate: bMatrix pseudoinverse:       0.00u       0.00s   0.003001w      7 calls
DIISManager::extrapolate: form new data:       0.00u       0.00s   0.001501w      7 calls
DFMP2 Singles:       0.00u       0.00s 0.00000000w      1 call
DFMP2 Aia   :       0.32u       0.15s 0.12709700w      1 call
DFMP2 (A|mn):       0.00u       0.00s 0.00500300w      1 call
DFMP2 (A|mn)C_mi:       0.00u       0.00s   0.000000w      2 calls
DFMP2 (A|mi)C_na:       0.00u       0.00s   0.006004w      2 calls
DFMP2 Aia Write:       0.00u       0.00s   0.000501w      2 calls
DFMP2 Qia   :       0.32u       0.10s 0.20963900w      1 call
DFMP2 Metric:       0.31u       0.07s 0.20163600w      1 call
DFMP2 Aia Read:       0.00u       0.00s   0.003503w      2 calls
DFMP2 (Q|A)(A|ia):       0.00u       0.00s   0.001501w      2 calls
DFMP2 Qia Write:       0.00u       0.00s   0.000000w      2 calls
DFMP2 Energy:       0.10u       0.01s 0.01901300w      1 call
DFMP2 Qia Read:       0.00u       0.00s   0.000501w      6 calls

***********************************************************

Host: ADAM-PC

Timers On : Wed Feb 15 10:03:29 2017
Timers Off: Wed Feb 15 10:03:30 2017

Wall Time:        1.00 seconds


***********************************************************

Host: ADAM-PC

Timers On : Wed Feb 15 10:04:13 2017
Timers Off: Wed Feb 15 10:04:13 2017

Wall Time:        0.00 seconds


***********************************************************

Host: ADAM-PC

Timers On : Wed Feb 15 10:08:22 2017
Timers Off: Wed Feb 15 10:08:23 2017

Wall Time:        1.00 seconds

Total PK formation time:       0.13u       0.06s 0.06204100w      1 call
HF: Form H  :       0.00u       0.00s 0.00300300w      1 call
HF: Form S/X:       0.00u       0.00s 0.00000000w      1 call
HF: Guess   :       0.18u       0.00s 0.01580900w      1 call
HF: Form G  :       0.11u       0.01s   0.022633w     12 calls
JK: D       :       0.00u       0.00s   0.000000w     12 calls
JK: USO2AO  :       0.00u       0.00s   0.000000w     12 calls
JK: JK      :       0.00u       0.00s   0.000500w     12 calls
PK computes JK:       0.00u       0.00s   0.000500w     12 calls
JK: AO2USO  :       0.00u       0.00s   0.000000w     12 calls
HF: Form F  :       0.31u       0.02s   0.036256w     12 calls
HF: DIIS    :       0.11u       0.01s   0.020631w     12 calls
DIISManager::add_entry:       0.00u       0.00s   0.000501w     12 calls
HF: Form C  :       0.00u       0.00s   0.000000w     12 calls
HF: Form D  :       0.21u       0.04s   0.038760w     12 calls
DIISManager::extrapolate:       0.11u       0.01s   0.019629w     11 calls
DIISManager::extrapolate: bMatrix setup:       0.00u       0.00s   0.000000w     11 calls
DIISManager::extrapolate: bMatrix pseudoinverse:       0.11u       0.01s   0.019629w     11 calls
DIISManager::extrapolate: form new data:       0.00u       0.00s   0.000000w     11 calls

***********************************************************

Host: ADAM-PC

Timers On : Wed Feb 15 10:08:43 2017
Timers Off: Wed Feb 15 10:08:44 2017

Wall Time:        1.00 seconds


***********************************************************

Host: ADAM-PC

Timers On : Wed Feb 15 10:09:14 2017
Timers Off: Wed Feb 15 10:09:15 2017

Wall Time:        1.00 seconds


***********************************************************

Host: ADAM-PC

Timers On : Wed Feb 15 10:10:05 2017
Timers Off: Wed Feb 15 10:10:06 2017

Wall Time:        1.00 seconds


***********************************************************

Host: ADAM-PC

Timers On : Wed Feb 15 10:16:22 2017
Timers Off: Wed Feb 15 10:16:22 2017

Wall Time:        0.00 seconds


***********************************************************

Host: ADAM-PC

Timers On : Wed Feb 15 10:16:58 2017
Timers Off: Wed Feb 15 10:16:59 2017

Wall Time:        1.00 seconds

Total PK formation time:       0.20u       0.08s 0.09656500w      1 call
HF: Form H  :       0.00u       0.01s 0.01591500w      1 call
HF: Form S/X:       0.00u       0.00s 0.00000000w      1 call
HF: Guess   :       0.10u       0.00s 0.01562500w      1 call
HF: Form G  :       0.00u       0.00s   0.005504w      8 calls
JK: D       :       0.00u       0.00s   0.000000w      8 calls
JK: USO2AO  :       0.00u       0.00s   0.000000w      8 calls
JK: JK      :       0.00u       0.00s   0.000000w      8 calls
PK computes JK:       0.00u       0.00s   0.000000w      8 calls
JK: AO2USO  :       0.00u       0.00s   0.000000w      8 calls
HF: Form F  :       0.21u       0.01s   0.023630w      8 calls
HF: DIIS    :       0.00u       0.00s   0.007006w      8 calls
DIISManager::add_entry:       0.00u       0.00s   0.001000w      8 calls
HF: Form C  :       0.00u       0.00s   0.001000w      8 calls
HF: Form D  :       0.11u       0.02s   0.019629w      8 calls
DIISManager::extrapolate:       0.00u       0.00s   0.006006w      7 calls
DIISManager::extrapolate: bMatrix setup:       0.00u       0.00s   0.000000w      7 calls
DIISManager::extrapolate: bMatrix pseudoinverse:       0.00u       0.00s   0.005505w      7 calls
DIISManager::extrapolate: form new data:       0.00u       0.00s   0.000501w      7 calls
DFMP2 Singles:       0.00u       0.00s 0.00000000w      1 call
DFMP2 Aia   :       0.32u       0.09s 0.12508300w      1 call
DFMP2 (A|mn):       0.00u       0.00s 0.00300200w      1 call
DFMP2 (A|mn)C_mi:       0.00u       0.00s   0.000000w      2 calls
DFMP2 (A|mi)C_na:       0.00u       0.00s   0.006001w      2 calls
DFMP2 Aia Write:       0.09u       0.00s   0.004506w      2 calls
DFMP2 Qia   :       0.39u       0.21s 0.19365800w      1 call
DFMP2 Metric:       0.39u       0.21s 0.18615400w      1 call
DFMP2 Aia Read:       0.00u       0.00s   0.003002w      2 calls
DFMP2 (Q|A)(A|ia):       0.00u       0.00s   0.001000w      2 calls
DFMP2 Qia Write:       0.00u       0.00s   0.001001w      2 calls
DFMP2 Energy:       0.10u       0.03s 0.01501000w      1 call
DFMP2 Qia Read:       0.00u       0.00s   0.000000w      6 calls

***********************************************************

Host: ADAM-PC

Timers On : Wed Feb 15 10:17:16 2017
Timers Off: Wed Feb 15 10:17:17 2017

Wall Time:        1.00 seconds

Total PK formation time:       0.09u       0.10s 0.06204000w      1 call
HF: Form H  :       0.03u       0.03s 0.00550300w      1 call
HF: Form S/X:       0.00u       0.00s 0.00650600w      1 call
HF: Guess   :       0.10u       0.00s 0.00600200w      1 call
HF: Form G  :       0.00u       0.00s   0.010008w      8 calls
JK: D       :       0.00u       0.00s   0.000000w      8 calls
JK: USO2AO  :       0.00u       0.00s   0.000000w      8 calls
JK: JK      :       0.00u       0.00s   0.000000w      8 calls
PK computes JK:       0.00u       0.00s   0.000000w      8 calls
JK: AO2USO  :       0.00u       0.00s   0.000000w      8 calls
HF: Form F  :       0.22u       0.01s   0.014009w      8 calls
HF: DIIS    :       0.00u       0.00s   0.017013w      8 calls
DIISManager::add_entry:       0.00u       0.00s   0.003001w      8 calls
HF: Form C  :       0.00u       0.00s   0.000000w      8 calls
HF: Form D  :       0.00u       0.00s   0.015011w      8 calls
DIISManager::extrapolate:       0.00u       0.00s   0.014012w      7 calls
DIISManager::extrapolate: bMatrix setup:       0.00u       0.00s   0.000500w      7 calls
DIISManager::extrapolate: bMatrix pseudoinverse:       0.00u       0.00s   0.013011w      7 calls
DIISManager::extrapolate: form new data:       0.00u       0.00s   0.000501w      7 calls
DFMP2 Singles:       0.00u       0.00s 0.00000000w      1 call
DFMP2 Aia   :       0.19u       0.11s 0.08856000w      1 call
DFMP2 (A|mn):       0.00u       0.00s 0.00400300w      1 call
DFMP2 (A|mn)C_mi:       0.00u       0.00s   0.000000w      2 calls
DFMP2 (A|mi)C_na:       0.00u       0.00s   0.006003w      2 calls
DFMP2 Aia Write:       0.05u       0.01s   0.001001w      2 calls
DFMP2 Qia   :       0.14u       0.05s 0.12558300w      1 call
DFMP2 Metric:       0.14u       0.05s 0.12158200w      1 call
DFMP2 Aia Read:       0.00u       0.00s   0.001500w      2 calls
DFMP2 (Q|A)(A|ia):       0.00u       0.00s   0.000000w      2 calls
DFMP2 Qia Write:       0.00u       0.00s   0.000000w      2 calls
DFMP2 Energy:       0.10u       0.00s 0.01601200w      1 call
DFMP2 Qia Read:       0.00u       0.00s   0.000000w      6 calls

***********************************************************

Host: ADAM-PC

Timers On : Wed Feb 15 10:19:29 2017
Timers Off: Wed Feb 15 10:19:30 2017

Wall Time:        1.00 seconds

Total PK formation time:       0.25u       0.05s 0.10485800w      1 call
HF: Form H  :       0.00u       0.00s 0.00250300w      1 call
HF: Form S/X:       0.00u       0.00s 0.00000000w      1 call
HF: Guess   :       0.09u       0.00s 0.01562400w      1 call
HF: Form G  :       0.09u       0.02s   0.012008w      8 calls
JK: D       :       0.00u       0.00s   0.000000w      8 calls
JK: USO2AO  :       0.00u       0.00s   0.000000w      8 calls
JK: JK      :       0.00u       0.00s   0.000000w      8 calls
PK computes JK:       0.00u       0.00s   0.000000w      8 calls
JK: AO2USO  :       0.00u       0.00s   0.000000w      8 calls
HF: Form F  :       0.42u       0.03s   0.043656w      8 calls
HF: DIIS    :       0.09u       0.03s   0.026135w      8 calls
DIISManager::add_entry:       0.09u       0.03s   0.016127w      8 calls
HF: Form C  :       0.00u       0.00s   0.000000w      8 calls
HF: Form D  :       0.11u       0.01s   0.012508w      8 calls
DIISManager::extrapolate:       0.00u       0.00s   0.010008w      7 calls
DIISManager::extrapolate: bMatrix setup:       0.00u       0.00s   0.000000w      7 calls
DIISManager::extrapolate: bMatrix pseudoinverse:       0.00u       0.00s   0.009507w      7 calls
DIISManager::extrapolate: form new data:       0.00u       0.00s   0.000000w      7 calls
DFMP2 Singles:       0.00u       0.00s 0.00000000w      1 call
DFMP2 Aia   :       0.26u       0.11s 0.11589000w      1 call
DFMP2 (A|mn):       0.00u       0.00s 0.00000000w      1 call
DFMP2 (A|mn)C_mi:       0.00u       0.00s   0.000000w      2 calls
DFMP2 (A|mi)C_na:       0.00u       0.00s   0.000000w      2 calls
DFMP2 Aia Write:       0.00u       0.00s   0.000000w      2 calls
DFMP2 Qia   :       0.38u       0.23s 0.20145100w      1 call
DFMP2 Metric:       0.33u       0.16s 0.19494600w      1 call
DFMP2 Aia Read:       0.00u       0.00s   0.003502w      2 calls
DFMP2 (Q|A)(A|ia):       0.05u       0.07s   0.000501w      2 calls
DFMP2 Qia Write:       0.00u       0.00s   0.000000w      2 calls
DFMP2 Energy:       0.11u       0.02s 0.01551000w      1 call
DFMP2 Qia Read:       0.00u       0.00s   0.000000w      6 calls

***********************************************************

Host: ADAM-PC

Timers On : Wed Feb 15 10:20:55 2017
Timers Off: Wed Feb 15 10:20:57 2017

Wall Time:        2.00 seconds

Total PK formation time:       0.29u       0.07s 0.10657100w      1 call
HF: Form H  :       0.00u       0.00s 0.00500300w      1 call
HF: Form S/X:       0.00u       0.00s 0.00050000w      1 call
HF: Guess   :       0.10u       0.00s 0.01562900w      1 call
HF: Form G  :       0.24u       0.00s   0.036757w      7 calls
JK: D       :       0.00u       0.00s   0.000000w      7 calls
JK: USO2AO  :       0.00u       0.00s   0.000000w      7 calls
JK: JK      :       0.00u       0.00s   0.000000w      7 calls
PK computes JK:       0.00u       0.00s   0.000000w      7 calls
JK: AO2USO  :       0.00u       0.00s   0.000000w      7 calls
HF: Form F  :       0.13u       0.00s   0.006004w      7 calls
HF: DIIS    :       0.13u       0.00s   0.022131w      7 calls
DIISManager::add_entry:       0.00u       0.00s   0.000500w      7 calls
HF: Form C  :       0.00u       0.00s   0.000000w      7 calls
HF: Form D  :       0.11u       0.02s   0.018127w      7 calls
DIISManager::extrapolate:       0.13u       0.00s   0.021631w      6 calls
DIISManager::extrapolate: bMatrix setup:       0.00u       0.00s   0.000000w      6 calls
DIISManager::extrapolate: bMatrix pseudoinverse:       0.13u       0.00s   0.021631w      6 calls
DIISManager::extrapolate: form new data:       0.00u       0.00s   0.000000w      6 calls
DFMP2 Singles:       0.00u       0.00s 0.00000000w      1 call
DFMP2 Aia   :       0.26u       0.06s 0.11507700w      1 call
DFMP2 (A|mn):       0.00u       0.00s 0.00450300w      1 call
DFMP2 (A|mn)C_mi:       0.00u       0.00s   0.000000w      2 calls
DFMP2 (A|mi)C_na:       0.00u       0.00s   0.004504w      2 calls
DFMP2 Aia Write:       0.00u       0.00s   0.004002w      2 calls
DFMP2 Qia   :       0.24u       0.08s 0.13459000w      1 call
DFMP2 Metric:       0.24u       0.08s 0.12958700w      1 call
DFMP2 Aia Read:       0.00u       0.00s   0.002501w      2 calls
DFMP2 (Q|A)(A|ia):       0.00u       0.00s   0.000000w      2 calls
DFMP2 Qia Write:       0.00u       0.00s   0.000000w      2 calls
DFMP2 Energy:       0.08u       0.01s 0.01451000w      1 call
DFMP2 Qia Read:       0.00u       0.00s   0.000000w      6 calls

***********************************************************

Host: ADAM-PC

Timers On : Wed Feb 15 10:21:58 2017
Timers Off: Wed Feb 15 10:21:58 2017

Wall Time:        0.00 seconds


***********************************************************

Host: ADAM-PC

Timers On : Wed Feb 15 10:22:16 2017
Timers Off: Wed Feb 15 10:22:17 2017

Wall Time:        1.00 seconds

Total PK formation time:       0.16u       0.07s 0.06901200w      1 call
HF: Form H  :       0.05u       0.02s 0.01562600w      1 call
HF: Form S/X:       0.00u       0.00s 0.00000000w      1 call
HF: Guess   :       0.09u       0.00s 0.01562500w      1 call
HF: Form G  :       0.11u       0.00s   0.018138w      5 calls
JK: D       :       0.00u       0.00s   0.000000w      5 calls
JK: USO2AO  :       0.00u       0.00s   0.000000w      5 calls
JK: JK      :       0.00u       0.00s   0.000000w      5 calls
PK computes JK:       0.00u       0.00s   0.000000w      5 calls
JK: AO2USO  :       0.00u       0.00s   0.000000w      5 calls
HF: Form F  :       0.00u       0.00s   0.004002w      5 calls
HF: DIIS    :       0.06u       0.03s   0.015626w      5 calls
DIISManager::add_entry:       0.00u       0.00s   0.000000w      5 calls
HF: Form C  :       0.00u       0.00s   0.000000w      5 calls
HF: Form D  :       0.00u       0.00s   0.000000w      5 calls
DIISManager::extrapolate:       0.06u       0.03s   0.015626w      4 calls
DIISManager::extrapolate: bMatrix setup:       0.00u       0.00s   0.000000w      4 calls
DIISManager::extrapolate: bMatrix pseudoinverse:       0.00u       0.00s   0.000000w      4 calls
DIISManager::extrapolate: form new data:       0.06u       0.03s   0.015626w      4 calls
DFMP2 Singles:       0.00u       0.00s 0.00000000w      1 call
DFMP2 Aia   :       0.17u       0.11s 0.08463600w      1 call
DFMP2 (A|mn):       0.00u       0.00s 0.00000000w      1 call
DFMP2 (A|mn)C_mi:       0.00u       0.00s   0.000000w      2 calls
DFMP2 (A|mi)C_na:       0.00u       0.00s   0.000000w      2 calls
DFMP2 Aia Write:       0.00u       0.00s   0.000000w      2 calls
DFMP2 Qia   :       0.16u       0.05s 0.13151800w      1 call
DFMP2 Metric:       0.16u       0.05s 0.13151800w      1 call
DFMP2 Aia Read:       0.00u       0.00s   0.000000w      2 calls
DFMP2 (Q|A)(A|ia):       0.00u       0.00s   0.000000w      2 calls
DFMP2 Qia Write:       0.00u       0.00s   0.000000w      2 calls
DFMP2 Energy:       0.09u       0.00s 0.04687700w      1 call
DFMP2 Qia Read:       0.00u       0.00s   0.000000w      6 calls

***********************************************************

Host: ADAM-PC

Timers On : Wed Feb 15 10:25:46 2017
Timers Off: Wed Feb 15 10:25:47 2017

Wall Time:        1.00 seconds

Total PK formation time:       0.14u       0.05s 0.07304900w      1 call
HF: Form H  :       0.03u       0.03s 0.00550400w      1 call
HF: Form S/X:       0.00u       0.00s 0.00600400w      1 call
HF: Guess   :       0.11u       0.01s 0.00900600w      1 call
HF: Form G  :       0.11u       0.00s   0.012510w      6 calls
JK: D       :       0.00u       0.00s   0.000501w      6 calls
JK: USO2AO  :       0.00u       0.00s   0.000501w      6 calls
JK: JK      :       0.00u       0.00s   0.000000w      6 calls
PK computes JK:       0.00u       0.00s   0.000000w      6 calls
JK: AO2USO  :       0.00u       0.00s   0.000000w      6 calls
HF: Form F  :       0.22u       0.03s   0.024515w      6 calls
HF: DIIS    :       0.00u       0.00s   0.008506w      6 calls
DIISManager::add_entry:       0.00u       0.00s   0.002503w      6 calls
HF: Form C  :       0.00u       0.00s   0.001000w      6 calls
HF: Form D  :       0.00u       0.00s   0.006004w      6 calls
DIISManager::extrapolate:       0.00u       0.00s   0.006003w      5 calls
DIISManager::extrapolate: bMatrix setup:       0.00u       0.00s   0.000000w      5 calls
DIISManager::extrapolate: bMatrix pseudoinverse:       0.00u       0.00s   0.006003w      5 calls
DIISManager::extrapolate: form new data:       0.00u       0.00s   0.000000w      5 calls
trans_ints  :       0.00u       0.01s 0.01870300w      1 call
Trans (OV|OV):       0.00u       0.01s 0.01820300w      1 call
Sort chem -> phys:       0.00u       0.00s 0.00000000w      1 call
Sort (OV|OV) -> <OO|VV>:       0.00u       0.00s 0.00000000w      1 call
Antisymmetrize integrals:       0.00u       0.00s 0.00000000w      1 call
Make <OO||VV>:       0.00u       0.00s 0.00000000w      1 call
Trans OEI   :       0.00u       0.00s 0.00000000w      1 call
Build Denominators:       0.00u       0.00s 0.00000000w      1 call
T2(1)       :       0.00u       0.00s 0.00000000w      1 call
MP2 Energy  :       0.00u       0.00s 0.00000000w      1 call

***********************************************************

Host: ADAM-PC

Timers On : Wed Feb 15 10:26:59 2017
Timers Off: Wed Feb 15 10:27:03 2017

Wall Time:        4.00 seconds

Total PK formation time:       0.27u       0.16s 0.11589000w      1 call
HF: Form H  :       0.01u       0.01s 0.01562700w      1 call
HF: Form S/X:       0.00u       0.00s 0.00000000w      1 call
HF: Guess   :       0.08u       0.02s 0.01562600w      1 call
HF: Form G  :       0.22u       0.02s   0.033255w      6 calls
JK: D       :       0.22u       0.02s   0.033255w      6 calls
JK: USO2AO  :       0.00u       0.00s   0.000000w      6 calls
JK: JK      :       0.00u       0.00s   0.000000w      6 calls
PK computes JK:       0.00u       0.00s   0.000000w      6 calls
JK: AO2USO  :       0.00u       0.00s   0.000000w      6 calls
HF: Form F  :       0.00u       0.00s   0.000000w      6 calls
HF: DIIS    :       0.03u       0.07s   0.018128w      6 calls
DIISManager::add_entry:       0.00u       0.00s   0.000501w      6 calls
HF: Form C  :       0.00u       0.00s   0.001506w      6 calls
HF: Form D  :       0.00u       0.00s   0.000000w      6 calls
DIISManager::extrapolate:       0.03u       0.07s   0.015626w      5 calls
DIISManager::extrapolate: bMatrix setup:       0.03u       0.07s   0.015626w      5 calls
DIISManager::extrapolate: bMatrix pseudoinverse:       0.00u       0.00s   0.000000w      5 calls
DIISManager::extrapolate: form new data:       0.00u       0.00s   0.000000w      5 calls
trans_ints  :       0.14u       0.08s 0.03375600w      1 call
Trans (OV|OV):       0.14u       0.08s 0.03375600w      1 call
Sort chem -> phys:       0.00u       0.00s 0.00000000w      1 call
Sort (OV|OV) -> <OO|VV>:       0.00u       0.00s 0.00000000w      1 call
Antisymmetrize integrals:       0.00u       0.00s 0.00000000w      1 call
Make <OO||VV>:       0.00u       0.00s 0.00000000w      1 call
Trans OEI   :       0.00u       0.00s 0.00000000w      1 call
Build Denominators:       0.00u       0.00s 0.00000000w      1 call
T2(1)       :       0.00u       0.00s 0.00000000w      1 call
MP2 Energy  :       0.00u       0.00s 0.00000000w      1 call

***********************************************************

Host: ADAM-PC

Timers On : Wed Feb 15 10:29:49 2017
Timers Off: Wed Feb 15 10:29:54 2017

Wall Time:        5.00 seconds

Total PK formation time:       0.16u       0.21s 0.11563700w      1 call
HF: Form H  :       0.09u       0.00s 0.01562600w      1 call
HF: Form S/X:       0.00u       0.00s 0.00000000w      1 call
HF: Guess   :       0.00u       0.00s 0.00000000w      1 call
HF: Form G  :       0.11u       0.02s   0.026137w      6 calls
JK: D       :       0.00u       0.00s   0.008005w      6 calls
JK: USO2AO  :       0.00u       0.00s   0.000000w      6 calls
JK: JK      :       0.00u       0.00s   0.000000w      6 calls
PK computes JK:       0.00u       0.00s   0.000000w      6 calls
JK: AO2USO  :       0.00u       0.00s   0.000000w      6 calls
HF: Form F  :       0.11u       0.00s   0.008004w      6 calls
HF: DIIS    :       0.11u       0.01s   0.028137w      6 calls
DIISManager::add_entry:       0.00u       0.00s   0.002003w      6 calls
HF: Form C  :       0.09u       0.03s   0.003001w      6 calls
HF: Form D  :       0.00u       0.00s   0.000500w      6 calls
DIISManager::extrapolate:       0.00u       0.00s   0.000502w      5 calls
DIISManager::extrapolate: bMatrix setup:       0.00u       0.00s   0.000502w      5 calls
DIISManager::extrapolate: bMatrix pseudoinverse:       0.00u       0.00s   0.000000w      5 calls
DIISManager::extrapolate: form new data:       0.00u       0.00s   0.000000w      5 calls
trans_ints  :       0.08u       0.14s 0.03125500w      1 call
Trans (OV|OV):       0.08u       0.14s 0.03125500w      1 call
Sort chem -> phys:       0.00u       0.00s 0.00000000w      1 call
Sort (OV|OV) -> <OO|VV>:       0.00u       0.00s 0.00000000w      1 call
Antisymmetrize integrals:       0.00u       0.00s 0.00000000w      1 call
Make <OO||VV>:       0.00u       0.00s 0.00000000w      1 call
Trans OEI   :       0.00u       0.00s 0.00000000w      1 call
Build Denominators:       0.00u       0.00s 0.00000000w      1 call
T2(1)       :       0.04u       0.08s 0.01562500w      1 call
MP2 Energy  :       0.00u       0.00s 0.00000000w      1 call

***********************************************************

Host: ADAM-PC

Timers On : Wed Feb 15 10:30:01 2017
Timers Off: Wed Feb 15 10:30:03 2017

Wall Time:        2.00 seconds

Total PK formation time:       0.22u       0.06s 0.10306900w      1 call
HF: Form H  :       0.00u       0.00s 0.00000000w      1 call
HF: Form S/X:       0.11u       0.00s 0.01581300w      1 call
HF: Guess   :       0.00u       0.00s 0.00000000w      1 call
HF: Form G  :       0.12u       0.00s   0.029138w      9 calls
JK: D       :       0.00u       0.00s   0.000000w      9 calls
JK: USO2AO  :       0.00u       0.00s   0.000000w      9 calls
JK: JK      :       0.00u       0.00s   0.000000w      9 calls
PK computes JK:       0.00u       0.00s   0.000000w      9 calls
JK: AO2USO  :       0.00u       0.00s   0.000000w      9 calls
HF: Form F  :       0.81u       0.04s   0.086020w      9 calls
HF: DIIS    :       0.11u       0.00s   0.005505w      9 calls
DIISManager::add_entry:       0.00u       0.00s   0.000000w      9 calls
HF: Form C  :       0.00u       0.00s   0.000000w      9 calls
HF: Form D  :       0.00u       0.00s   0.008005w      9 calls
DIISManager::extrapolate:       0.11u       0.00s   0.005505w      8 calls
DIISManager::extrapolate: bMatrix setup:       0.00u       0.00s   0.000500w      8 calls
DIISManager::extrapolate: bMatrix pseudoinverse:       0.11u       0.00s   0.004505w      8 calls
DIISManager::extrapolate: form new data:       0.00u       0.00s   0.000500w      8 calls
trans_ints  :       0.11u       0.03s 0.03302200w      1 call
Trans (OV|OV):       0.00u       0.03s 0.02701800w      1 call
Sort chem -> phys:       0.00u       0.00s 0.00050100w      1 call
Sort (OV|OV) -> <OO|VV>:       0.00u       0.00s 0.00050100w      1 call
Antisymmetrize integrals:       0.00u       0.00s 0.00000000w      1 call
Make <OO||VV>:       0.00u       0.00s 0.00000000w      1 call
Trans OEI   :       0.11u       0.00s 0.00500300w      1 call
Build Denominators:       0.00u       0.00s 0.00000000w      1 call
T2(1)       :       0.00u       0.00s 0.00000000w      1 call
MP2 Energy  :       0.00u       0.00s 0.00000000w      1 call

***********************************************************

Host: ADAM-PC

Timers On : Wed Feb 15 10:30:56 2017
Timers Off: Wed Feb 15 10:30:57 2017

Wall Time:        1.00 seconds

Total PK formation time:       0.19u       0.10s 0.10356900w      1 call
HF: Form H  :       0.00u       0.00s 0.00000000w      1 call
HF: Form S/X:       0.00u       0.00s 0.00000000w      1 call
HF: Guess   :       0.09u       0.00s 0.01562800w      1 call
HF: Form G  :       0.11u       0.02s   0.012009w     11 calls
JK: D       :       0.00u       0.00s   0.000000w     11 calls
JK: USO2AO  :       0.00u       0.00s   0.000501w     11 calls
JK: JK      :       0.00u       0.00s   0.000000w     11 calls
PK computes JK:       0.00u       0.00s   0.000000w     11 calls
JK: AO2USO  :       0.00u       0.00s   0.000000w     11 calls
HF: Form F  :       0.22u       0.02s   0.045647w     11 calls
HF: DIIS    :       0.34u       0.02s   0.028633w     11 calls
DIISManager::add_entry:       0.00u       0.00s   0.001000w     11 calls
HF: Form C  :       0.00u       0.00s   0.001001w     11 calls
HF: Form D  :       0.11u       0.01s   0.015510w     11 calls
DIISManager::extrapolate:       0.34u       0.02s   0.027633w     10 calls
DIISManager::extrapolate: bMatrix setup:       0.00u       0.00s   0.000501w     10 calls
DIISManager::extrapolate: bMatrix pseudoinverse:       0.34u       0.02s   0.026130w     10 calls
DIISManager::extrapolate: form new data:       0.00u       0.00s   0.001002w     10 calls
trans_ints  :       0.05u       0.02s 0.04687700w      1 call
Trans (OV|OV):       0.02u       0.02s 0.03125200w      1 call
Sort chem -> phys:       0.00u       0.00s 0.00000000w      1 call
Sort (OV|OV) -> <OO|VV>:       0.00u       0.00s 0.00000000w      1 call
Antisymmetrize integrals:       0.00u       0.00s 0.00000000w      1 call
Make <OO||VV>:       0.00u       0.00s 0.00000000w      1 call
Trans OEI   :       0.03u       0.00s 0.01562500w      1 call
Build Denominators:       0.00u       0.00s 0.00000000w      1 call
T2(1)       :       0.00u       0.00s 0.00000000w      1 call
MP2 Energy  :       0.00u       0.00s 0.00000000w      1 call

***********************************************************

Host: ADAM-PC

Timers On : Wed Feb 15 10:31:54 2017
Timers Off: Wed Feb 15 10:31:55 2017

Wall Time:        1.00 seconds

Total PK formation time:       0.17u       0.11s 0.10857200w      1 call
HF: Form H  :       0.00u       0.00s 0.00000000w      1 call
HF: Form S/X:       0.00u       0.00s 0.00000000w      1 call
HF: Guess   :       0.09u       0.00s 0.01562700w      1 call
HF: Form G  :       0.00u       0.00s   0.022514w     11 calls
JK: D       :       0.00u       0.00s   0.000000w     11 calls
JK: USO2AO  :       0.00u       0.00s   0.000000w     11 calls
JK: JK      :       0.00u       0.00s   0.000501w     11 calls
PK computes JK:       0.00u       0.00s   0.000501w     11 calls
JK: AO2USO  :       0.00u       0.00s   0.000000w     11 calls
HF: Form F  :       0.78u       0.03s   0.074435w     11 calls
HF: DIIS    :       0.03u       0.08s   0.020013w     11 calls
DIISManager::add_entry:       0.00u       0.00s   0.001502w     11 calls
HF: Form C  :       0.00u       0.00s   0.001503w     11 calls
HF: Form D  :       0.00u       0.00s   0.020012w     11 calls
DIISManager::extrapolate:       0.03u       0.08s   0.018011w     10 calls
DIISManager::extrapolate: bMatrix setup:       0.00u       0.00s   0.002003w     10 calls
DIISManager::extrapolate: bMatrix pseudoinverse:       0.03u       0.08s   0.015508w     10 calls
DIISManager::extrapolate: form new data:       0.00u       0.00s   0.000500w     10 calls
trans_ints  :       0.11u       0.03s 0.03157200w      1 call
Trans (OV|OV):       0.00u       0.02s 0.01594700w      1 call
Sort chem -> phys:       0.00u       0.00s 0.00000000w      1 call
Sort (OV|OV) -> <OO|VV>:       0.00u       0.00s 0.00000000w      1 call
Antisymmetrize integrals:       0.00u       0.00s 0.00000000w      1 call
Make <OO||VV>:       0.00u       0.00s 0.00000000w      1 call
Trans OEI   :       0.00u       0.00s 0.00000000w      1 call
Build Denominators:       0.00u       0.00s 0.00000000w      1 call
T2(1)       :       0.00u       0.00s 0.00000000w      1 call
MP2 Energy  :       0.00u       0.00s 0.00000000w      1 call

***********************************************************

Host: ADAM-PC

Timers On : Wed Feb 15 10:32:10 2017
Timers Off: Wed Feb 15 10:32:15 2017

Wall Time:        5.00 seconds

Total PK formation time:       0.29u       0.09s 0.11307500w      1 call
HF: Form H  :       0.00u       0.00s 0.00000000w      1 call
HF: Form S/X:       0.09u       0.00s 0.01562800w      1 call
HF: Guess   :       0.00u       0.00s 0.00000000w      1 call
HF: Form G  :       0.13u       0.00s   0.015624w      6 calls
JK: D       :       0.13u       0.00s   0.015624w      6 calls
JK: USO2AO  :       0.00u       0.00s   0.000000w      6 calls
JK: JK      :       0.00u       0.00s   0.000000w      6 calls
PK computes JK:       0.00u       0.00s   0.000000w      6 calls
JK: AO2USO  :       0.00u       0.00s   0.000000w      6 calls
HF: Form F  :       0.00u       0.00s   0.000000w      6 calls
HF: DIIS    :       0.12u       0.06s   0.031254w      6 calls
DIISManager::add_entry:       0.05u       0.06s   0.015627w      6 calls
HF: Form C  :       0.00u       0.00s   0.000000w      6 calls
HF: Form D  :       0.00u       0.00s   0.000000w      6 calls
DIISManager::extrapolate:       0.00u       0.00s   0.000000w      5 calls
DIISManager::extrapolate: bMatrix setup:       0.00u       0.00s   0.000000w      5 calls
DIISManager::extrapolate: bMatrix pseudoinverse:       0.00u       0.00s   0.000000w      5 calls
DIISManager::extrapolate: form new data:       0.00u       0.00s   0.000000w      5 calls
trans_ints  :       0.10u       0.14s 0.03125100w      1 call
Trans (OV|OV):       0.10u       0.14s 0.03125100w      1 call
Sort chem -> phys:       0.00u       0.00s 0.00000000w      1 call
Sort (OV|OV) -> <OO|VV>:       0.00u       0.00s 0.00000000w      1 call
Antisymmetrize integrals:       0.00u       0.00s 0.00000000w      1 call
Make <OO||VV>:       0.00u       0.00s 0.00000000w      1 call
Trans OEI   :       0.00u       0.00s 0.00000000w      1 call
Build Denominators:       0.00u       0.00s 0.00000000w      1 call
T2(1)       :       0.00u       0.00s 0.00000000w      1 call
MP2 Energy  :       0.04u       0.08s 0.01562600w      1 call

***********************************************************

Host: ADAM-PC

Timers On : Wed Feb 15 10:33:54 2017
Timers Off: Wed Feb 15 10:33:56 2017

Wall Time:        2.00 seconds

Total PK formation time:       0.19u       0.09s 0.10026400w      1 call
HF: Form H  :       0.02u       0.02s 0.01562600w      1 call
HF: Form S/X:       0.00u       0.00s 0.00000000w      1 call
HF: Guess   :       0.11u       0.01s 0.01562500w      1 call
HF: Form G  :       0.21u       0.04s   0.033137w      7 calls
JK: D       :       0.00u       0.00s   0.000000w      7 calls
JK: USO2AO  :       0.00u       0.00s   0.000500w      7 calls
JK: JK      :       0.00u       0.00s   0.000501w      7 calls
PK computes JK:       0.00u       0.00s   0.000501w      7 calls
JK: AO2USO  :       0.00u       0.00s   0.000000w      7 calls
HF: Form F  :       0.46u       0.00s   0.042645w      7 calls
HF: DIIS    :       0.11u       0.01s   0.017126w      7 calls
DIISManager::add_entry:       0.00u       0.00s   0.000500w      7 calls
HF: Form C  :       0.00u       0.00s   0.001001w      7 calls
HF: Form D  :       0.12u       0.00s   0.025136w      7 calls
DIISManager::extrapolate:       0.11u       0.01s   0.016626w      6 calls
DIISManager::extrapolate: bMatrix setup:       0.00u       0.00s   0.000500w      6 calls
DIISManager::extrapolate: bMatrix pseudoinverse:       0.11u       0.01s   0.015626w      6 calls
DIISManager::extrapolate: form new data:       0.00u       0.00s   0.000000w      6 calls
trans_ints  :       0.03u       0.03s 0.04687700w      1 call
Trans (OV|OV):       0.00u       0.03s 0.03125100w      1 call
Sort chem -> phys:       0.00u       0.00s 0.00000000w      1 call
Sort (OV|OV) -> <OO|VV>:       0.00u       0.00s 0.00000000w      1 call
Antisymmetrize integrals:       0.00u       0.00s 0.00000000w      1 call
Make <OO||VV>:       0.00u       0.00s 0.00000000w      1 call
Trans OEI   :       0.03u       0.00s 0.01562600w      1 call
Build Denominators:       0.00u       0.00s 0.00000000w      1 call
T2(1)       :       0.02u       0.01s 0.01813000w      1 call
MP2 Energy  :       0.03u       0.02s 0.00150100w      1 call

***********************************************************

Host: ADAM-PC

Timers On : Wed Feb 15 10:36:24 2017
Timers Off: Wed Feb 15 10:36:25 2017

Wall Time:        1.00 seconds

Total PK formation time:       0.25u       0.12s 0.10026400w      1 call
HF: Form H  :       0.00u       0.00s 0.00000000w      1 call
HF: Form S/X:       0.06u       0.03s 0.01562700w      1 call
HF: Guess   :       0.11u       0.02s 0.01562600w      1 call
HF: Form G  :       0.11u       0.02s   0.020013w      7 calls
JK: D       :       0.00u       0.00s   0.000500w      7 calls
JK: USO2AO  :       0.00u       0.00s   0.000000w      7 calls
JK: JK      :       0.00u       0.00s   0.000000w      7 calls
PK computes JK:       0.00u       0.00s   0.000000w      7 calls
JK: AO2USO  :       0.00u       0.00s   0.000000w      7 calls
HF: Form F  :       0.33u       0.03s   0.061157w      7 calls
HF: DIIS    :       0.09u       0.03s   0.007157w      7 calls
DIISManager::add_entry:       0.00u       0.00s   0.001676w      7 calls
HF: Form C  :       0.00u       0.00s   0.001001w      7 calls
HF: Form D  :       0.11u       0.01s   0.009508w      7 calls
DIISManager::extrapolate:       0.09u       0.03s   0.004981w      6 calls
DIISManager::extrapolate: bMatrix setup:       0.00u       0.00s   0.000000w      6 calls
DIISManager::extrapolate: bMatrix pseudoinverse:       0.09u       0.03s   0.003501w      6 calls
DIISManager::extrapolate: form new data:       0.00u       0.00s   0.000979w      6 calls
trans_ints  :       0.03u       0.02s 0.03125600w      1 call
Trans (OV|OV):       0.00u       0.02s 0.01562600w      1 call
Sort chem -> phys:       0.00u       0.00s 0.00000000w      1 call
Sort (OV|OV) -> <OO|VV>:       0.00u       0.00s 0.00000000w      1 call
Antisymmetrize integrals:       0.00u       0.00s 0.00000000w      1 call
Make <OO||VV>:       0.00u       0.00s 0.00000000w      1 call
Trans OEI   :       0.03u       0.00s 0.01563000w      1 call
Build Denominators:       0.00u       0.00s 0.00000000w      1 call
T2(1)       :       0.02u       0.01s 0.01662600w      1 call
MP2 Energy  :       0.00u       0.00s 0.00250100w      1 call

***********************************************************

Host: ADAM-PC

Timers On : Tue Feb 21 22:08:41 2017
Timers Off: Tue Feb 21 22:08:41 2017

Wall Time:        0.00 seconds


***********************************************************

Host: ADAM-PC

Timers On : Sat Jun 17 12:22:28 2017
Timers Off: Sat Jun 17 12:22:58 2017

Wall Time:       30.00 seconds


***********************************************************

Host: ADAM-PC

Timers On : Sat Jun 17 12:25:46 2017
Timers Off: Sat Jun 17 12:27:33 2017

Wall Time:      107.00 seconds


***********************************************************

Host: ADAM-PC

Timers On : Tue Jun 20 20:17:14 2017
Timers Off: Tue Jun 20 20:17:22 2017

Wall Time:        8.00 seconds


***********************************************************

Host: ADAM-PC

Timers On : Tue Jun 20 20:17:40 2017
Timers Off: Tue Jun 20 20:17:41 2017

Wall Time:        1.00 seconds


***********************************************************
