
Host: ADAM-PC

Timers On : Wed Jun 21 16:00:23 2017
Timers Off: Wed Jun 21 16:00:24 2017

Wall Time:        1.00 seconds


***********************************************************

Host: ADAM-PC

Timers On : Wed Jun 21 16:00:37 2017
Timers Off: Wed Jun 21 16:00:37 2017

Wall Time:        0.00 seconds


***********************************************************

Host: ADAM-PC

Timers On : Wed Jun 21 16:00:58 2017
Timers Off: Wed Jun 21 16:00:58 2017

Wall Time:        0.00 seconds


***********************************************************

Host: ADAM-PC

Timers On : Wed Jun 21 16:01:54 2017
Timers Off: Wed Jun 21 16:01:54 2017

Wall Time:        0.00 seconds


***********************************************************

Host: ADAM-PC

Timers On : Wed Jun 21 16:02:09 2017
Timers Off: Wed Jun 21 16:02:09 2017

Wall Time:        0.00 seconds


***********************************************************

Host: ADAM-PC

Timers On : Wed Jun 21 16:03:39 2017
Timers Off: Wed Jun 21 16:03:40 2017

Wall Time:        1.00 seconds


***********************************************************

Host: ADAM-PC

Timers On : Wed Jun 21 16:04:13 2017
Timers Off: Wed Jun 21 16:04:13 2017

Wall Time:        0.00 seconds


***********************************************************

Host: ADAM-PC

Timers On : Wed Jun 21 16:10:00 2017
Timers Off: Wed Jun 21 16:10:01 2017

Wall Time:        1.00 seconds


***********************************************************

Host: ADAM-PC

Timers On : Wed Jun 21 16:10:48 2017
Timers Off: Wed Jun 21 16:10:48 2017

Wall Time:        0.00 seconds


***********************************************************

Host: ADAM-PC

Timers On : Wed Jun 21 17:18:29 2017
Timers Off: Wed Jun 21 17:18:29 2017

Wall Time:        0.00 seconds


***********************************************************
