
Host: ADAM-PC

Timers On : Wed Jun 21 16:11:28 2017
Timers Off: Wed Jun 21 16:11:28 2017

Wall Time:        0.00 seconds


***********************************************************

Host: ADAM-PC

Timers On : Wed Jun 21 16:12:38 2017
Timers Off: Wed Jun 21 16:12:39 2017

Wall Time:        1.00 seconds


***********************************************************

Host: ADAM-PC

Timers On : Wed Jun 21 16:15:16 2017
Timers Off: Wed Jun 21 16:15:16 2017

Wall Time:        0.00 seconds


***********************************************************

Host: ADAM-PC

Timers On : Wed Jun 21 16:15:42 2017
Timers Off: Wed Jun 21 16:15:43 2017

Wall Time:        1.00 seconds


***********************************************************

Host: ADAM-PC

Timers On : Wed Jun 21 16:16:08 2017
Timers Off: Wed Jun 21 16:16:09 2017

Wall Time:        1.00 seconds


***********************************************************

Host: ADAM-PC

Timers On : Wed Jun 21 16:18:59 2017
Timers Off: Wed Jun 21 16:19:00 2017

Wall Time:        1.00 seconds


***********************************************************

Host: ADAM-PC

Timers On : Wed Jun 21 16:19:33 2017
Timers Off: Wed Jun 21 16:19:33 2017

Wall Time:        0.00 seconds


***********************************************************

Host: ADAM-PC

Timers On : Wed Jun 21 16:32:13 2017
Timers Off: Wed Jun 21 16:32:13 2017

Wall Time:        0.00 seconds


***********************************************************
