
Host: ADAM-PC

Timers On : Wed Jun 21 14:48:52 2017
Timers Off: Wed Jun 21 14:48:54 2017

Wall Time:        2.00 seconds


***********************************************************

Host: ADAM-PC

Timers On : Wed Jun 21 14:49:00 2017
Timers Off: Wed Jun 21 14:49:03 2017

Wall Time:        3.00 seconds


***********************************************************

Host: ADAM-PC

Timers On : Wed Jun 21 14:49:06 2017
Timers Off: Wed Jun 21 14:49:08 2017

Wall Time:        2.00 seconds


***********************************************************

Host: ADAM-PC

Timers On : Wed Jun 21 14:52:17 2017
Timers Off: Wed Jun 21 14:52:20 2017

Wall Time:        3.00 seconds


***********************************************************

Host: ADAM-PC

Timers On : Wed Jun 21 14:54:10 2017
Timers Off: Wed Jun 21 14:54:12 2017

Wall Time:        2.00 seconds


***********************************************************

Host: ADAM-PC

Timers On : Wed Jun 21 14:57:41 2017
Timers Off: Wed Jun 21 14:57:43 2017

Wall Time:        2.00 seconds


***********************************************************
