
Host: ADAM-PC

Timers On : Wed Jun 21 16:28:30 2017
Timers Off: Wed Jun 21 16:28:30 2017

Wall Time:        0.00 seconds


***********************************************************

Host: ADAM-PC

Timers On : Wed Jun 21 16:28:48 2017
Timers Off: Wed Jun 21 16:28:48 2017

Wall Time:        0.00 seconds


***********************************************************

Host: ADAM-PC

Timers On : Wed Jun 21 16:29:06 2017
Timers Off: Wed Jun 21 16:29:07 2017

Wall Time:        1.00 seconds


***********************************************************

Host: ADAM-PC

Timers On : Wed Jun 21 16:29:17 2017
Timers Off: Wed Jun 21 16:29:18 2017

Wall Time:        1.00 seconds


***********************************************************

Host: ADAM-PC

Timers On : Wed Jun 21 16:29:47 2017
Timers Off: Wed Jun 21 16:29:57 2017

Wall Time:       10.00 seconds


***********************************************************

Host: ADAM-PC

Timers On : Wed Jun 21 16:30:39 2017
Timers Off: Wed Jun 21 16:30:43 2017

Wall Time:        4.00 seconds


***********************************************************

Host: ADAM-PC

Timers On : Wed Jun 21 16:31:24 2017
Timers Off: Wed Jun 21 16:31:25 2017

Wall Time:        1.00 seconds


***********************************************************

Host: ADAM-PC

Timers On : Wed Jun 21 16:32:02 2017
Timers Off: Wed Jun 21 16:32:03 2017

Wall Time:        1.00 seconds


***********************************************************

Host: ADAM-PC

Timers On : Wed Jun 21 16:34:47 2017
Timers Off: Wed Jun 21 16:34:48 2017

Wall Time:        1.00 seconds


***********************************************************

Host: ADAM-PC

Timers On : Wed Jun 21 16:36:39 2017
Timers Off: Wed Jun 21 16:36:39 2017

Wall Time:        0.00 seconds


***********************************************************

Host: ADAM-PC

Timers On : Wed Jun 21 16:36:58 2017
Timers Off: Wed Jun 21 16:36:59 2017

Wall Time:        1.00 seconds


***********************************************************

Host: ADAM-PC

Timers On : Wed Jun 21 16:37:24 2017
Timers Off: Wed Jun 21 16:37:25 2017

Wall Time:        1.00 seconds


***********************************************************

Host: ADAM-PC

Timers On : Wed Jun 21 16:40:54 2017
Timers Off: Wed Jun 21 16:40:55 2017

Wall Time:        1.00 seconds


***********************************************************

Host: ADAM-PC

Timers On : Wed Jun 21 16:59:37 2017
Timers Off: Wed Jun 21 16:59:37 2017

Wall Time:        0.00 seconds


***********************************************************

Host: ADAM-PC

Timers On : Wed Jun 21 17:04:27 2017
Timers Off: Wed Jun 21 17:04:28 2017

Wall Time:        1.00 seconds


***********************************************************

Host: ADAM-PC

Timers On : Wed Jun 21 17:06:50 2017
Timers Off: Wed Jun 21 17:06:50 2017

Wall Time:        0.00 seconds


***********************************************************

Host: ADAM-PC

Timers On : Wed Jun 21 17:07:02 2017
Timers Off: Wed Jun 21 17:07:02 2017

Wall Time:        0.00 seconds


***********************************************************

Host: ADAM-PC

Timers On : Wed Jun 21 17:07:46 2017
Timers Off: Wed Jun 21 17:07:46 2017

Wall Time:        0.00 seconds


***********************************************************

Host: ADAM-PC

Timers On : Wed Jun 21 17:07:59 2017
Timers Off: Wed Jun 21 17:08:00 2017

Wall Time:        1.00 seconds


***********************************************************

Host: ADAM-PC

Timers On : Wed Jun 21 17:09:07 2017
Timers Off: Wed Jun 21 17:09:07 2017

Wall Time:        0.00 seconds


***********************************************************

Host: ADAM-PC

Timers On : Wed Jun 21 17:09:28 2017
Timers Off: Wed Jun 21 17:09:29 2017

Wall Time:        1.00 seconds


***********************************************************

Host: ADAM-PC

Timers On : Wed Jun 21 17:16:47 2017
Timers Off: Wed Jun 21 17:16:48 2017

Wall Time:        1.00 seconds


***********************************************************

Host: ADAM-PC

Timers On : Wed Jun 21 17:17:39 2017
Timers Off: Wed Jun 21 17:17:40 2017

Wall Time:        1.00 seconds


***********************************************************

Host: ADAM-PC

Timers On : Thu Jun 22 12:41:54 2017
Timers Off: Thu Jun 22 12:41:55 2017

Wall Time:        1.00 seconds


***********************************************************

Host: ADAM-PC

Timers On : Thu Jun 22 13:25:16 2017
Timers Off: Thu Jun 22 13:25:16 2017

Wall Time:        0.00 seconds


***********************************************************

Host: ADAM-PC

Timers On : Thu Jun 22 13:51:43 2017
Timers Off: Thu Jun 22 13:51:44 2017

Wall Time:        1.00 seconds


***********************************************************

Host: ADAM-PC

Timers On : Thu Jun 22 13:52:21 2017
Timers Off: Thu Jun 22 13:52:21 2017

Wall Time:        0.00 seconds


***********************************************************

Host: ADAM-PC

Timers On : Thu Jun 22 14:02:41 2017
Timers Off: Thu Jun 22 14:02:42 2017

Wall Time:        1.00 seconds


***********************************************************

Host: ADAM-PC

Timers On : Thu Jun 22 14:03:02 2017
Timers Off: Thu Jun 22 14:03:02 2017

Wall Time:        0.00 seconds


***********************************************************

Host: ADAM-PC

Timers On : Thu Jun 22 15:59:21 2017
Timers Off: Thu Jun 22 15:59:22 2017

Wall Time:        1.00 seconds


***********************************************************

Host: ADAM-PC

Timers On : Thu Jun 22 16:43:06 2017
Timers Off: Thu Jun 22 16:43:07 2017

Wall Time:        1.00 seconds


***********************************************************

Host: ADAM-PC

Timers On : Thu Jun 22 16:43:30 2017
Timers Off: Thu Jun 22 16:43:33 2017

Wall Time:        3.00 seconds


***********************************************************

Host: ADAM-PC

Timers On : Thu Jun 22 16:44:06 2017
Timers Off: Thu Jun 22 16:44:06 2017

Wall Time:        0.00 seconds


***********************************************************

Host: ADAM-PC

Timers On : Thu Jun 22 16:50:33 2017
Timers Off: Thu Jun 22 16:50:34 2017

Wall Time:        1.00 seconds


***********************************************************

Host: ADAM-PC

Timers On : Thu Jun 22 16:51:49 2017
Timers Off: Thu Jun 22 16:51:50 2017

Wall Time:        1.00 seconds


***********************************************************
